
units 		metal
dimension	3
boundary	p	p	p
atom_style	atomic

###READ ATOMS
read_data ${LOC2}/TC-EQ-STRUCTURE-5-25
read_data ../output/output-2//TC-EQ-STRUCTURE-5-25
  orthogonal box = (-1.10372 -5.51858 -1.10372) to (26.1037 130.519 26.1037)
  1 by 8 by 2 MPI processor grid
  reading atoms ...
  5000 atoms
  reading velocities ...
  5000 velocities

###load potential
pair_style sw
pair_coeff * * pot/Si.sw Si
Reading potential file pot/Si.sw with DATE: 2007-06-11
mass * 28.0855


####fix ID group-ID thermal/conductivity N edim Nbin keyword value ...
reset_timestep 0

fix 1 all thermal/conductivity ${swap_every} y ${TC_num_layers} swap ${num_swap}
fix 1 all thermal/conductivity 500 y ${TC_num_layers} swap ${num_swap}
fix 1 all thermal/conductivity 500 y 90 swap ${num_swap}
fix 1 all thermal/conductivity 500 y 90 swap 2

fix       2 all nve

#TEMPERATURE PROFILE
compute   KE all ke/atom
variable  temp1 atom c_KE/(1.5*0.00008617)
compute   layers all chunk/atom bin/1d y lower 2.0 #units reduced
fix 3 all ave/chunk 1 ${N_TC} ${N_TC} layers v_temp1 file ${LOC2}/TC-TEMP-PROFILE-5-25
fix 3 all ave/chunk 1 200000 ${N_TC} layers v_temp1 file ${LOC2}/TC-TEMP-PROFILE-5-25
fix 3 all ave/chunk 1 200000 200000 layers v_temp1 file ${LOC2}/TC-TEMP-PROFILE-5-25
fix 3 all ave/chunk 1 200000 200000 layers v_temp1 file ../output/output-2//TC-TEMP-PROFILE-5-25

thermo ${thermo_save}
thermo 500

variable A equal lx*lz
variable flux equal f_1/((time-0.000000000001)*v_A) #ADD -0.000001 to avoid division by zero
thermo_style custom time temp v_A f_1 v_flux

run ${N_TC}
run 200000
Neighbor list info ...
  1 neighbor list requests
  update every 1 steps, delay 10 steps, check yes
  max neighbors/atom: 2000, page size: 100000
  master list distance cutoff = 5.77118
  ghost atom cutoff = 5.77118
  binsize = 2.88559 -> bins = 10 48 10
Memory usage per processor = 2.65298 Mbytes
Time Temp A 1 flux 
           0    500.60443    740.24445            0           -0 
         0.5    492.83805    740.24445   0.39276818 0.0010611851 
           1    493.66526    740.24445   0.68996664 0.00093207945 
         1.5    499.85136    740.24445    1.1693121 0.0010530865 
           2    497.96859    740.24445    1.5825978 0.0010689697 
         2.5    490.05517    740.24445     2.045442 0.0011052792 
           3    498.99418    740.24445    2.4905247 0.0011214875 
         3.5    502.16027    740.24445    2.9223876 0.0011279624 
           4    495.13768    740.24445    3.2563399 0.0010997515 
         4.5    495.50061    740.24445    3.7406401 0.0011229444 
           5    498.16088    740.24445    4.1423744 0.0011191909 
         5.5    496.74323    740.24445    4.6790377 0.0011492611 
           6    490.90513    740.24445    5.1312672 0.0011553092 
         6.5     494.7221    740.24445    5.5758819 0.0011588442 
           7    504.31617    740.24445    6.1953004  0.001195609 
         7.5    496.15617    740.24445    6.6015403 0.0011890739 
           8    501.80644    740.24445    6.9649068  0.001176116 
         8.5    490.00094    740.24445    7.3579276 0.0011693955 
           9    502.44173    740.24445    7.6925625  0.001154658 
         9.5    502.09074    740.24445    8.3416281  0.001186184 
          10    497.61938    740.24445    8.7809693 0.0011862256 
        10.5    497.13994    740.24445     9.317148 0.0011987222 
          11    500.60923    740.24445    9.8178617 0.0012057272 
        11.5    493.92574    740.24445    10.238193 0.0012026806 
          12    501.13515    740.24445    10.561419 0.0011889562 
        12.5    504.04831    740.24445    11.012133 0.0011901078 
          13    502.27057    740.24445    11.278133 0.0011719759 
        13.5     497.4584    740.24445    11.681941 0.0011689773 
          14    499.95305    740.24445    12.007948 0.0011586856 
        14.5    494.42198    740.24445    12.432856 0.0011583178 
          15    500.15739    740.24445    12.816562 0.0011542639 
        15.5    494.34269    740.24445    13.241686 0.0011540813 
          16    503.91344    740.24445    13.739181 0.0011600206 
        16.5    508.03543    740.24445    14.240544 0.0011659166 
          17    494.28276    740.24445    14.564277 0.0011573504 
        17.5    498.56073    740.24445    14.922593 0.0011519433 
          18    495.86573    740.24445    15.353869 0.0011523122 
        18.5    496.84441    740.24445     15.82907 0.0011558687 
          19    505.66988    740.24445    16.246244 0.0011551123 
        19.5     504.7879    740.24445    16.649817 0.0011534525 
          20    501.02724    740.24445    17.081112 0.0011537481 
        20.5    498.33634    740.24445    17.623209 0.0011613308 
          21    509.53102    740.24445    17.969683 0.0011559684 
        21.5    491.74931    740.24445    18.388159 0.0011553794 
          22    501.39444    740.24445    18.825284 0.0011559624 
        22.5    496.00146    740.24445    19.211331 0.0011534526 
          23     492.6323    740.24445    20.054954 0.0011779278 
        23.5    504.07605    740.24445    20.381104 0.0011716144 
          24    503.98353    740.24445    20.646868  0.001162165 
        24.5    499.71604    740.24445    21.067565 0.0011616441 
          25    496.69365    740.24445    21.615103 0.0011679981 
        25.5     504.3418    740.24445    22.014942 0.0011662783 
          26    497.49807    740.24445    22.360881 0.0011618242 
        26.5    495.67781    740.24445    22.701476 0.0011572657 
          27    498.89486    740.24445     23.14323 0.0011579373 
        27.5    502.64785    740.24445    23.570525 0.0011578743 
          28    502.15619    740.24445    23.898958 0.0011530437 
        28.5    494.05366    740.24445     24.47271 0.0011600108 
          29    499.02503    740.24445     24.81052 0.0011557468 
        29.5    491.45526    740.24445    25.156076 0.0011519821 
          30    496.12936    740.24445     25.49958 0.0011482504 
        30.5    501.70664    740.24445    26.061075 0.0011542964 
          31    495.66827    740.24445    26.450255 0.0011526382 
        31.5    499.12682    740.24445    27.007367 0.0011582346 
          32    502.81442    740.24445    27.590917 0.0011647722 
        32.5    502.25294    740.24445    28.093667 0.0011677501 
          33     496.4339    740.24445    28.539758 0.0011683183 
        33.5     498.1518    740.24445    28.919526 0.0011661951 
          34    503.19009    740.24445    29.325146 0.0011651615 
        34.5    492.37503    740.24445    29.666051 0.0011616238 
          35    496.10008    740.24445    30.201951 0.0011657134 
        35.5    489.00265    740.24445    30.553484  0.001162672 
          36    499.84827    740.24445    30.938011 0.0011609532 
        36.5    490.74148    740.24445    31.425493  0.001163092 
          37    497.30301    740.24445     31.87638 0.0011638369 
        37.5    501.10041    740.24445    32.359692 0.0011657299 
          38     495.4217    740.24445    32.790261 0.0011656982 
        38.5     494.2506    740.24445     33.24732 0.0011665967 
          39    500.96936    740.24445    33.812482 0.0011712168 
        39.5    492.63888    740.24445    34.388456 0.0011760896 
          40    503.62053    740.24445    34.722604 0.0011726736 
        40.5    502.44852    740.24445    35.183588 0.0011735726 
          41    495.44148    740.24445    35.606716 0.0011732023 
        41.5    493.42086    740.24445    36.068549 0.0011741009 
          42    494.01661    740.24445    36.445786 0.0011722571 
        42.5    499.10225    740.24445    36.926101 0.0011737331 
          43    499.49294    740.24445    37.262404 0.0011706505 
        43.5     493.3827    740.24445    37.556665 0.0011663331 
          44    502.89753    740.24445     37.93757  0.001164774 
        44.5     503.1272    740.24445    38.426755 0.0011665371 
          45     498.7516    740.24445    38.837307 0.0011659003 
        45.5    497.39254    740.24445    39.221679 0.0011645003 
          46     497.6282    740.24445    39.701127 0.0011659229 
        46.5    497.21706    740.24445    40.216349 0.0011683542 
          47    494.52617    740.24445     40.58862  0.001166625 
        47.5    500.11941    740.24445    41.077057 0.0011682359 
          48    494.18972    740.24445    41.661062 0.0011725029 
        48.5    499.00216    740.24445    42.116953 0.0011731135 
          49    493.95513    740.24445    42.510549 0.0011719942 
        49.5    495.28031    740.24445    43.064502 0.0011752738 
          50    499.86642    740.24445    43.459893 0.0011742038 
        50.5    498.80736    740.24445    43.772098 0.0011709297 
          51    500.77184    740.24445    44.427515 0.0011768109 
        51.5     500.9221    740.24445    44.953698  0.001179188 
          52    499.75273    740.24445     45.44529 0.0011806207 
        52.5    499.02572    740.24445    45.927183 0.0011817765 
          53    498.91746    740.24445    46.499224 0.0011852083 
        53.5    496.67919    740.24445     46.91948 0.0011847433 
          54    493.85278    740.24445    47.329464 0.0011840299 
        54.5    500.97806    740.24445    47.756096 0.0011837423 
          55    495.57273    740.24445    48.210265 0.0011841362 
        55.5    494.07124    740.24445     48.85239 0.0011890981 
          56    501.25009    740.24445    49.265434 0.0011884451 
        56.5    493.01196    740.24445    49.679199 0.0011878209 
          57    494.67053    740.24445     50.09536 0.0011872645 
        57.5    496.22396    740.24445    50.469159 0.0011857225 
          58    502.68761    740.24445    50.949243 0.0011866826 
        58.5    500.74834    740.24445     51.35136 0.0011858259 
          59    500.05337    740.24445    51.799477 0.0011860369 
        59.5    503.21187    740.24445    52.179152 0.0011846905 
          60     498.8222    740.24445    52.624843 0.0011848528 
        60.5    491.75019    740.24445    53.086517 0.0011853694 
          61    503.52579    740.24445    53.551954 0.0011859608 
        61.5    497.01747    740.24445     54.00967  0.001186373 
          62    492.26816    740.24445     54.57851 0.0011891998 
        62.5    498.12886    740.24445    54.958575 0.0011879011 
          63    500.21464    740.24445    55.484433 0.0011897493 
        63.5     500.8295    740.24445    55.893819 0.0011890905 
          64    502.17213    740.24445    56.319076  0.001188777 
        64.5    494.52627    740.24445     56.72411 0.0011880448 
          65     503.9759    740.24445    57.527678 0.0011956067 
        65.5    501.49042    740.24445     57.89169 0.0011939875 
          66    487.26788    740.24445    58.273312 0.0011927532 
        66.5    496.21409    740.24445    58.714454 0.0011927467 
          67    498.47939    740.24445    59.155472 0.0011927377 
        67.5    506.89764    740.24445    59.605536   0.00119291 
          68    501.28379    740.24445    59.938518 0.0011907537 
        68.5    497.62572    740.24445    60.317079 0.0011895277 
          69    505.85218    740.24445    60.680893 0.0011880308 
        69.5    505.76863    740.24445    61.054461 0.0011867451 
          70    505.51365    740.24445    61.448804 0.0011858786 
        70.5    498.63466    740.24445    61.953021 0.0011871298 
          71    507.04199    740.24445    62.499913 0.0011891754 
        71.5    503.29231    740.24445    62.962966 0.0011896083 
          72    498.72171    740.24445    63.458956 0.0011906532 
        72.5    500.88444    740.24445    63.890167 0.0011904766 
          73    496.34664    740.24445    64.323139  0.001190335 
        73.5    498.59985    740.24445    64.826795 0.0011914945 
          74    504.88979    740.24445    65.377459 0.0011934965 
        74.5    496.85749    740.24445    65.766592 0.0011925426 
          75     495.7028    740.24445    66.195776 0.0011923228 
        75.5    501.94251    740.24445    66.624576 0.0011920991 
          76    497.83827    740.24445    67.123553 0.0011931257 
        76.5    502.26588    740.24445    67.576528 0.0011933265 
          77    497.86783    740.24445    67.909896 0.0011914263 
        77.5    497.78023    740.24445    68.329367 0.0011910515 
          78    495.00074    740.24445    68.775631 0.0011911455 
        78.5    501.60922    740.24445    69.176142  0.001190451 
          79    502.13841    740.24445    69.613765 0.0011903999 
        79.5    501.39652    740.24445    69.985278  0.001189226 
          80    500.46935    740.24445    70.435784 0.0011894007 
        80.5    496.96184    740.24445    70.906132 0.0011899063 
          81    501.14795    740.24445    71.369547 0.0011902899 
        81.5    497.37384    740.24445    71.830315  0.001190625 
          82    494.35221    740.24445    72.289792 0.0011909347 
        82.5    495.76745    740.24445    72.801816 0.0011921011 
          83    490.24933    740.24445    73.183299 0.0011911288 
        83.5     493.8259    740.24445    73.595808 0.0011906701 
          84    498.71847    740.24445    73.997539 0.0011900435 
        84.5    498.61048    740.24445    74.382906 0.0011891627 
          85    499.77818    740.24445    74.930543 0.0011908712 
        85.5    500.10696    740.24445    75.303873 0.0011898057 
          86    502.84113    740.24445    75.674361 0.0011887079 
        86.5    495.39647    740.24445    76.089085 0.0011883137 
          87    499.22643    740.24445    76.715392 0.0011912094 
        87.5    499.88598    740.24445    77.211149 0.0011920564 
          88    498.05011    740.24445     77.58238 0.0011909822 
        88.5    498.58709    740.24445    77.953752 0.0011899223 
          89    495.89945    740.24445    78.554495 0.0011923558 
        89.5    501.21732    740.24445    78.915477 0.0011911432 
          90    495.33951    740.24445    79.338881 0.0011908811 
        90.5    496.90198    740.24445    79.756903 0.0011905415 
          91    504.40069    740.24445    80.217971 0.0011908447 
        91.5    490.72864    740.24445    80.869839 0.0011939615 
          92    490.21032    740.24445    81.262386 0.0011932367 
        92.5    497.31488    740.24445    81.857446 0.0011954772 
          93    495.88363    740.24445    82.216054  0.001194259 
        93.5    495.45722    740.24445    82.542698  0.001192592 
          94    492.55039    740.24445    82.931087 0.0011918301 
        94.5    495.30266    740.24445    83.380559 0.0011919494 
          95    493.84033    740.24445    83.743965 0.0011908437 
        95.5    501.65436    740.24445    84.026487 0.0011886053 
          96    501.46036    740.24445    84.426844 0.0011880485 
        96.5    497.08916    740.24445    84.841386  0.001187696 
          97    501.54952    740.24445    85.285151 0.0011877541 
        97.5    505.69672    740.24445    85.733832 0.0011878797 
          98    495.14234    740.24445    86.093582 0.0011867781 
        98.5    499.30031    740.24445    86.544766 0.0011869418 
          99    496.43156    740.24445    87.124621 0.0011888595 
        99.5    492.89624    740.24445    87.642384  0.001189915 
         100    491.47714    740.24445    88.011106 0.0011889465 
       100.5    494.60643    740.24445    88.559201 0.0011903988 
         101    500.69915    740.24445    88.871468 0.0011886824 
       101.5    497.59704    740.24445    89.225086 0.0011875332 
         102    497.39468    740.24445    89.695387 0.0011879407 
       102.5    501.77471    740.24445     90.22119 0.0011890758 
         103     493.1692    740.24445    90.734613 0.0011900374 
       103.5    497.16394    740.24445    91.076309 0.0011887483 
         104     500.0515    740.24445    91.468938 0.0011881332 
       104.5    502.64849    740.24445    91.781438 0.0011864882 
         105    503.55015    740.24445    92.278324  0.001187231 
       105.5    504.33271    740.24445    92.800723 0.0011882935 
         106    497.49852    740.24445    93.253643 0.0011884606 
       106.5    497.75257    740.24445    93.774875 0.0011894925 
         107    505.05403    740.24445    94.223774 0.0011896016 
       107.5    504.25688    740.24445    94.627749 0.0011891452 
         108    495.32454    740.24445    95.024404 0.0011886014 
       108.5    496.35095    740.24445    95.555191 0.0011897327 
         109    502.25179    740.24445    96.038194 0.0011902613 
       109.5    494.54936    740.24445    96.397442 0.0011892584 
         110    492.12605    740.24445    96.824492 0.0011890973 
       110.5    496.80437    740.24445     97.30815 0.0011896296 
         111    499.13922    740.24445    97.716519 0.0011892409 
       111.5    503.32575    740.24445    98.080952 0.0011883234 
         112     497.4815    740.24445    98.514428 0.0011882468 
       112.5    498.40043    740.24445    98.883436 0.0011873968 
         113    496.95982    740.24445    99.247071   0.00118649 
       113.5    503.47336    740.24445    99.871932 0.0011887005 
         114    495.56128    740.24445    100.33887 0.0011890201 
       114.5    502.46043    740.24445    100.79684 0.0011892311 
         115     501.8166    740.24445    101.28455 0.0011897897 
       115.5     495.2095    740.24445    102.08759 0.0011940316 
         116    492.20847    740.24445    102.52354 0.0011939619 
       116.5    500.38933    740.24445    102.86714 0.0011928218 
         117     501.3324    740.24445    103.36551 0.0011934786 
       117.5    499.95219    740.24445    103.87897 0.0011943032 
         118    492.75793    740.24445    104.31769 0.0011942652 
       118.5    497.47258    740.24445    104.77945 0.0011944903 
         119    494.71192    740.24445    105.29892 0.0011953684 
       119.5    501.00287    740.24445    105.81874 0.0011962433 
         120    497.08138    740.24445    106.29028 0.0011965673 
       120.5     502.1932    740.24445    106.68219  0.001195996 
         121    500.62036    740.24445    107.11096 0.0011958408 
       121.5    498.34776    740.24445    107.88515 0.0011995276 
         122    494.23272    740.24445    108.34884 0.0011997459 
       122.5    495.97105    740.24445    108.88861 0.0012008015 
         123    505.75452    740.24445    109.34025 0.0012008805 
       123.5    504.55631    740.24445    109.62723 0.0011991578 
         124    505.70545    740.24445    110.02089 0.0011986111 
       124.5    500.22136    740.24445    110.63165 0.0012004245 
         125     500.7135    740.24445    111.00737 0.0011996834 
       125.5    499.35115    740.24445    111.51789 0.0012003991 
         126    504.73932    740.24445    111.84056 0.0011990951 
       126.5    503.92107    740.24445    112.22102 0.0011984185 
         127    503.20384    740.24445    112.85074 0.0012003987 
       127.5    501.04395    740.24445    113.29299 0.0012003771 
         128    498.49332    740.24445    114.01717  0.001203331 
       128.5    502.02989    740.24445    114.38841 0.0012025516 
         129    491.54778    740.24445    114.87968 0.0012030352 
       129.5    492.35916    740.24445    115.35919 0.0012033924 
         130    498.57217    740.24445    115.85993 0.0012039674 
       130.5    496.56364    740.24445    116.22118 0.0012030941 
         131    493.72063    740.24445     116.8166 0.0012046423 
       131.5    495.55404    740.24445    117.23064 0.0012043154 
         132    501.01323    740.24445    117.70461 0.0012046042 
       132.5     493.8112    740.24445     118.0523 0.0012036034 
         133    506.95324    740.24445    118.52013 0.0012038304 
       133.5     507.7986    740.24445    118.95943  0.001203767 
         134    497.19207    740.24445    119.30885  0.001202798 
       134.5    498.15796    740.24445    119.65766   0.00120183 
         135    496.79145    740.24445    120.05261  0.001201331 
       135.5    499.66991    740.24445    120.45317 0.0012008915 
         136    506.23135    740.24445    120.91502 0.0012010641 
       136.5    497.28445    740.24445    121.29746 0.0012004495 
         137    496.98971    740.24445    121.65163 0.0011995606 
       137.5    497.77357    740.24445    122.09119 0.0011995171 
         138    493.19096    740.24445    122.73977 0.0012015202 
       138.5    503.24111    740.24445    123.19198 0.0012015933 
         139    500.96667    740.24445    123.60083 0.0012012445 
       139.5    505.79918    740.24445    124.08418 0.0012016197 
         140     493.1943    740.24445    124.40289 0.0012004035 
       140.5    501.35499    740.24445    125.00798 0.0012019496 
         141    497.54909    740.24445    125.42972  0.001201728 
       141.5    496.12289    740.24445    125.79892 0.0012010064 
         142    502.49319    740.24445      126.138 0.0012000033 
       142.5    498.59206    740.24445    126.65163  0.001200662 
         143    492.96856    740.24445    127.09258 0.0012006295 
       143.5    499.86819    740.24445    127.51481 0.0012004209 
         144    503.26807    740.24445    127.94909 0.0012003269 
       144.5    503.60857    740.24445    128.40518 0.0012004375 
         145    504.00873    740.24445    128.86402 0.0012005729 
       145.5    496.68577    740.24445    129.24092 0.0011999465 
         146    499.60362    740.24445    129.71455 0.0012002195 
       146.5    501.54041    740.24445    130.13456 0.0011999962 
         147    500.59201    740.24445    130.42037 0.0011985411 
       147.5    495.37965    740.24445    130.91244  0.001198985 
         148    503.48528    740.24445    131.36684 0.0011990819 
       148.5    499.02901    740.24445    131.75454 0.0011985716 
         149    503.44499    740.24445    132.11171 0.0011977878 
       149.5    505.14641    740.24445    132.81924 0.0012001751 
         150    501.99889    740.24445    133.34786 0.0012009354 
       150.5    504.93272    740.24445    133.86899 0.0012016232 
         151    491.80995    740.24445    134.28612 0.0012013762 
       151.5    492.93844    740.24445    134.55554 0.0011998136 
         152    493.68925    740.24445    135.01634 0.0011999623 
       152.5    496.92412    740.24445    135.38318 0.0011992775 
         153    498.65825    740.24445      135.712 0.0011982616 
       153.5    495.62663    740.24445    136.12239 0.0011979703 
         154    504.33097    740.24445    136.68018 0.0011989737 
       154.5    497.73602    740.24445    137.06119  0.001198425 
         155    500.01193    740.24445    137.41551 0.0011976472 
       155.5    499.94408    740.24445    137.75101 0.0011967109 
         156    499.41946    740.24445    138.23903 0.0011971013 
       156.5    499.92655    740.24445    138.56079 0.0011960542 
         157    497.48923    740.24445    138.89179 0.0011950931 
       157.5    503.22437    740.24445    139.50184 0.0011965317 
         158     499.1283    740.24445    139.96586 0.0011967126 
       158.5    500.42926    740.24445    140.35554 0.0011962588 
         159    501.08756    740.24445    140.96303 0.0011976583 
       159.5    500.36608    740.24445    141.44368 0.0011979748 
         160    490.18611    740.24445    141.86544 0.0011977921 
       160.5      497.085    740.24445     142.2625 0.0011974027 
         161    496.97187    740.24445     142.7128 0.0011974624 
       161.5    497.22101    740.24445    143.20502 0.0011978724 
         162    495.28722    740.24445     143.7754 0.0011989316 
       162.5    496.61553    740.24445    144.21829 0.0011989244 
         163    501.14443    740.24445    144.59173 0.0011983418 
       163.5    499.84042    740.24445    145.11858 0.0011990302 
         164    501.79798    740.24445    145.50002 0.0011985166 
       164.5    502.80682    740.24445    145.97044 0.0011987369 
         165    499.15203    740.24445    146.45392 0.0011990627 
       165.5    500.78831    740.24445    147.04252 0.0012002447 
         166    496.61657    740.24445    147.55507 0.0012008006 
       166.5    501.55839    740.24445    147.98999 0.0012007233 
         167    505.52587    740.24445    148.36157 0.0012001342 
       167.5     496.4769    740.24445     148.8811 0.0012007417 
         168    496.54787    740.24445    149.37099 0.0012011074 
       168.5    499.89498    740.24445    149.87883 0.0012016147 
         169     501.7909    740.24445    150.26976 0.0012011845 
       169.5    489.83272    740.24445    150.76452 0.0012015844 
         170    489.60466    740.24445    151.03203 0.0012001761 
       170.5    503.03039    740.24445    151.41528 0.0011996931 
         171    495.67319    740.24445      151.779 0.0011990586 
       171.5    508.60689    740.24445    152.22531 0.0011990784 
         172    502.42185    740.24445    152.61737  0.001198672 
       172.5    502.11801    740.24445    153.08026 0.0011988226 
         173     502.3356    740.24445    153.47277 0.0011984228 
       173.5    501.05931    740.24445    153.97727 0.0011988973 
         174    500.92246    740.24445    154.69055 0.0012009899 
       174.5    497.27893    740.24445    155.16279 0.0012012046 
         175    500.16659    740.24445    155.70515 0.0012019593 
       175.5    503.41866    740.24445    156.22333 0.0012025236 
         176    489.98046    740.24445    156.76566 0.0012032701 
       176.5     495.2314    740.24445    157.17331 0.0012029815 
         177    501.81113    740.24445    157.57267 0.0012026312 
       177.5    494.38538    740.24445    157.96874 0.0012022579 
         178    496.84532    740.24445    158.46458 0.0012026439 
       178.5    504.79984    740.24445    158.88536 0.0012024596 
         179    495.71568    740.24445    159.27785 0.0012020629 
       179.5     498.5886    740.24445    159.87596 0.0012032159 
         180    495.99344    740.24445    160.33533 0.0012033212 
       180.5    497.09771    740.24445    160.76775 0.0012032242 
         181    497.12003    740.24445    161.15851 0.0012028169 
       181.5    498.67976    740.24445    161.64315 0.0012031105 
         182    496.55363    740.24445    161.99809 0.0012024398 
       182.5    501.19837    740.24445    162.37542 0.0012019385 
         183    498.84028    740.24445    162.94515 0.0012028603 
       183.5    494.83125    740.24445    163.51429 0.0012037727 
         184    496.73305    740.24445    163.86368 0.0012030668 
       184.5    502.37888    740.24445    164.22058 0.0012024196 
         185     493.8895    740.24445    164.78736 0.0012033086 
       185.5    494.91028    740.24445    165.25173  0.001203447 
         186    495.84263    740.24445    165.69748 0.0012034493 
       186.5    506.82209    740.24445     166.1859 0.0012037607 
         187    496.64482    740.24445    166.71919 0.0012043947 
       187.5     500.9004    740.24445    167.09236 0.0012038716 
         188    503.46721    740.24445    167.49159 0.0012035385 
       188.5    504.00104    740.24445    168.04008 0.0012042769 
         189    496.34682    740.24445    168.58433 0.0012049811 
       189.5     492.2829    740.24445    168.98875 0.0012046847 
         190    506.41347    740.24445    169.47303 0.0012049578 
       190.5    499.84724    740.24445    169.88796 0.0012047376 
         191    502.74261    740.24445    170.36558 0.0012049619 
       191.5    503.02613    740.24445    170.81891 0.0012050138 
         192    505.20986    740.24445    171.21794 0.0012046833 
       192.5     500.4775    740.24445    171.67577 0.0012047671 
         193    496.09367    740.24445    172.12216 0.0012047705 
       193.5    496.49521    740.24445    172.57748 0.0012048362 
         194    499.92826    740.24445    172.95873 0.0012043857 
       194.5    500.14932    740.24445    173.28397 0.0012035486 
         195    492.91841    740.24445    173.69634 0.0012033194 
       195.5    496.16594    740.24445    174.15515 0.0012034122 
         196    496.41024    740.24445    174.49367 0.0012026754 
       196.5     503.3091    740.24445    174.91489  0.001202511 
         197    500.52569    740.24445    175.45371 0.0012031538 
       197.5    500.58058    740.24445    175.79203  0.001202422 
         198    500.15192    740.24445    176.44335 0.0012038294 
       198.5    500.62179    740.24445    176.94149 0.0012041872 
         199    493.22459    740.24445    177.34807 0.0012039217 
       199.5    492.99829    740.24445    177.72764 0.0012034746 
         200    494.75458    740.24445    178.20722 0.0012037052 
Loop time of 524.277 on 16 procs for 200000 steps with 5000 atoms

Performance: 32.960 ns/day, 0.728 hours/ns, 381.478 timesteps/s
99.5% CPU use with 16 MPI tasks x no OpenMP threads

MPI task timing breakdown:
Section |  min time  |  avg time  |  max time  |%varavg| %total
---------------------------------------------------------------
Pair    | 432.35     | 451.3      | 471.83     |  52.5 | 86.08
Neigh   | 0          | 0          | 0          |   0.0 |  0.00
Comm    | 23.509     | 40.087     | 62.026     | 157.6 |  7.65
Output  | 0.020621   | 0.025829   | 0.091364   |  10.5 |  0.00
Modify  | 6.2878     | 6.6748     | 7.0445     |   6.6 |  1.27
Other   |            | 26.19      |            |       |  5.00

Nlocal:    312.5 ave 325 max 299 min
Histogram: 1 1 0 3 1 5 2 1 0 2
Nghost:    1136.5 ave 1156 max 1118 min
Histogram: 1 0 1 5 2 3 1 2 0 1
Neighs:    0 ave 0 max 0 min
Histogram: 16 0 0 0 0 0 0 0 0 0
FullNghs:  10866.8 ave 11302 max 10405 min
Histogram: 1 1 1 2 2 4 2 1 0 2

Total # of neighbors = 173868
Ave neighs/atom = 34.7736
Neighbor list builds = 0
Dangerous builds = 0

print ${flux} file ${LOC2}/flux-5-25.dat
print 0.00120370522987262 file ${LOC2}/flux-5-25.dat
print 0.00120370522987262 file ../output/output-2//flux-5-25.dat
0.00120370522987262


####-------------------SOME INFO ON VARIOUS FIXES---------------------------


####write_data snap/data.${N_steps}
#####dump dump1 all custom ${snap_save} snap/snap.*.lammps id type x y z


##### CONSTRUCT A TEMPERATURE PROFILE
##### THESE BINS ARE NOT RELATED TO thermal/conductivity Bins
#####  bin/1d args = dim origin delta
#####    dim = x or y or z
#####    origin = lower or center or upper or coordinate value (distance units)
#####    delta = thickness of spatial bins in dim (distance units)



#####fix ID group-ID ave/chunk Nevery Nrepeat Nfreq chunkID value1 value2 ... keyword args ...
#####ID, group-ID are documented in fix command
#####ave/chunk = style name of this fix command
#####Nevery = use input values every this many timesteps
#####Nrepeat = # of times to use input values for calculating averages
#####Nfreq = calculate averages every this many timesteps
#####chunkID = ID of compute chunk/atom command
#####one or more input values can be listed
#####value = vx, vy, vz, fx, fy, fz, density/mass, density/number, temp, c_ID, c_ID[I], f_ID, f_ID[I], v_name

#####For example, if Nevery=2, Nrepeat=6, and Nfreq=100, then values on timesteps 90,92,94,96,98,100 will be used to compute the final aver
####age on timestep 100. Similarly for timesteps 190,192,194,196,198,200 on timestep 200, etc. If Nrepeat=1 and Nfreq = 100, then no time a
####veraging is done; values are simply generated on timesteps 100,200,etc.





#####fix ID group-ID thermal/conductivity N edim Nbin keyword value ...
#####ID, group-ID are documented in fix command
#####thermal/conductivity = style name of this fix command
#####N = perform kinetic energy exchange every N steps
#####edim = x or y or z = direction of kinetic energy transfer
#####Nbin = # of layers in edim direction (must be even number)
#####zero or more keyword/value pairs may be appended
#####keyword = swap
#####swap value = Nswap = number of swaps to perform every N steps


Total wall time: 0:11:22
