
units 		metal
dimension	3
boundary	p	p	p
atom_style	atomic

###READ ATOMS
read_data ${LOC2}/TC-EQ-STRUCTURE-5-75
read_data ../output/output-2//TC-EQ-STRUCTURE-5-75
  orthogonal box = (-1.10372 -5.51858 -1.10372) to (26.1037 130.519 26.1037)
  1 by 8 by 2 MPI processor grid
  reading atoms ...
  5000 atoms
  reading velocities ...
  5000 velocities

###load potential
pair_style sw
pair_coeff * * pot/Si.sw Si
Reading potential file pot/Si.sw with DATE: 2007-06-11
mass * 28.0855


####fix ID group-ID thermal/conductivity N edim Nbin keyword value ...
reset_timestep 0

fix 1 all thermal/conductivity ${swap_every} y ${TC_num_layers} swap ${num_swap}
fix 1 all thermal/conductivity 1500 y ${TC_num_layers} swap ${num_swap}
fix 1 all thermal/conductivity 1500 y 270 swap ${num_swap}
fix 1 all thermal/conductivity 1500 y 270 swap 2

fix       2 all nve

#TEMPERATURE PROFILE
compute   KE all ke/atom
variable  temp1 atom c_KE/(1.5*0.00008617)
compute   layers all chunk/atom bin/1d y lower 2.0 #units reduced
fix 3 all ave/chunk 1 ${N_TC} ${N_TC} layers v_temp1 file ${LOC2}/TC-TEMP-PROFILE-5-75
fix 3 all ave/chunk 1 200000 ${N_TC} layers v_temp1 file ${LOC2}/TC-TEMP-PROFILE-5-75
fix 3 all ave/chunk 1 200000 200000 layers v_temp1 file ${LOC2}/TC-TEMP-PROFILE-5-75
fix 3 all ave/chunk 1 200000 200000 layers v_temp1 file ../output/output-2//TC-TEMP-PROFILE-5-75

thermo ${thermo_save}
thermo 1500

variable A equal lx*lz
variable flux equal f_1/((time-0.000000000001)*v_A) #ADD -0.000001 to avoid division by zero
thermo_style custom time temp v_A f_1 v_flux

run ${N_TC}
run 200000
Neighbor list info ...
  1 neighbor list requests
  update every 1 steps, delay 10 steps, check yes
  max neighbors/atom: 2000, page size: 100000
  master list distance cutoff = 5.77118
  ghost atom cutoff = 5.77118
  binsize = 2.88559 -> bins = 10 48 10
Memory usage per processor = 2.64968 Mbytes
Time Temp A 1 flux 
           0    495.25775    740.24445            0           -0 
         1.5    499.43138    740.24445   0.20974983 0.00018890141 
           3    497.91173    740.24445   0.45873131 0.00020656749 
         4.5    508.17418    740.24445   0.72550421 0.00021779719 
           6     501.5204    740.24445    1.1932759 0.00026866709 
         7.5    495.85772    740.24445    1.6045414 0.00028901109 
           9    495.32941    740.24445    2.0430048 0.00030665618 
        10.5    492.24705    740.24445    2.3228382 0.00029885085 
          12    499.12701    740.24445    2.8256732 0.00031810136 
        13.5    506.58115    740.24445    3.1589807 0.00031610986 
          15    500.52785    740.24445     3.505491 0.00031570571 
        16.5    495.22381    740.24445     3.787348 0.00031008168 
          18    502.88414    740.24445    4.3469607 0.00032624063 
        19.5    496.20981    740.24445    4.8121133 0.00033336966 
          21    501.51284    740.24445    5.1039528 0.00032833123 
        22.5    500.09974    740.24445    5.3333535 0.00032021575 
          24    501.61101    740.24445    5.6791993 0.00031966913 
        25.5    505.12685    740.24445    5.9057915 0.00031286917 
          27    495.49892    740.24445     6.066428 0.00030352476 
        28.5    495.90908    740.24445    6.4433546 0.00030541616 
          30    504.09021    740.24445    6.8747426 0.00030957083 
        31.5    495.68884    740.24445     7.338931 0.00031473649 
          33    507.02716    740.24445    7.7425017 0.00031695106 
        34.5     498.3565    740.24445    8.0088369 0.00031359938 
          36    493.00338    740.24445    8.4121046 0.00031566541 
        37.5    500.32003    740.24445    8.8103288 0.00031738448 
          39    494.26775    740.24445    9.1252802 0.00031608686 
        40.5    494.73516    740.24445    9.4982279 0.00031681986 
          42    492.84732    740.24445    9.7336811 0.00031307808 
        43.5    501.64192    740.24445     10.19924 0.00031674035 
          45    495.24199    740.24445    10.658726 0.00031997615 
        46.5    495.15137    740.24445     10.90697 0.00031686626 
          48    496.88362    740.24445    11.286522 0.00031764624 
        49.5    500.66615    740.24445    11.515136 0.00031425973 
          51    508.19095    740.24445    11.846257 0.00031378762 
        52.5    501.88369    740.24445    12.245148 0.00031508635 
          54    494.76397    740.24445    12.532768 0.00031352925 
        55.5    494.37408    740.24445    12.819456 0.00031203367 
          57    502.55607    740.24445    13.359655 0.00031662501 
        58.5    497.11698    740.24445    13.610648 0.00031430246 
          60    501.62753    740.24445    14.007391 0.0003153776 
        61.5    489.67182    740.24445    14.407938 0.00031648385 
          63    495.44522    740.24445    14.681025 0.00031480431 
        64.5    505.42672    740.24445    15.057315 0.00031536439 
          66    501.31562    740.24445    15.490128 0.00031705596 
        67.5    496.36295    740.24445    15.934942 0.00031891251 
          69    502.25963    740.24445    16.365259 0.00032040453 
        70.5    498.02458    740.24445    16.559262 0.00031730485 
          72    494.45917    740.24445     16.77467 0.00031473593 
        73.5    505.33315    740.24445    17.152682 0.00031526048 
          75    497.04445    740.24445    17.486741 0.00031497237 
        76.5    497.09717    740.24445    17.739748 0.00031326425 
          78    500.08248    740.24445    18.096637 0.00031342101 
        79.5    488.48287    740.24445    18.412962 0.00031288257 
          81    497.09613    740.24445    18.967854 0.00031634284 
        82.5    501.39019    740.24445    19.201579 0.00031441832 
          84    502.07091    740.24445     19.50863 0.00031374176 
        85.5    505.91614    740.24445    19.946937 0.00031516279 
          87    495.77148    740.24445     20.23002 0.00031412456 
        88.5     504.0868    740.24445    20.552909 0.00031372914 
          90    501.65562    740.24445    20.965437 0.0003146924 
        91.5    499.80893    740.24445    21.321392 0.00031478882 
          93    497.81222    740.24445    21.650033 0.00031448537 
        94.5    501.71734    740.24445    22.030252 0.00031492889 
          96    495.01354    740.24445    22.311317 0.00031396325 
        97.5    499.32995    740.24445    22.666077 0.0003140484 
          99    503.28163    740.24445    23.033395 0.00031430233 
       100.5    506.43779    740.24445    23.402531 0.00031457311 
         102    497.14444    740.24445    23.836619 0.00031569617 
       103.5    496.07467    740.24445      23.9995 0.00031324682 
         105    504.91631    740.24445    24.465565 0.00031476816 
       106.5     497.9646    740.24445    24.836126 0.00031503521 
         108    495.45402    740.24445    25.072527 0.00031361671 
       109.5    502.10891    740.24445    25.359673 0.00031286312 
         111    493.67423    740.24445    25.594393 0.00031149186 
       112.5    497.17108    740.24445    25.948833 0.00031159476 
         114    492.94067    740.24445    26.246835 0.00031102617 
       115.5    498.19817    740.24445    26.683609 0.00031209544 
         117    499.39165    740.24445    27.008175 0.00031184172 
       118.5     496.2992    740.24445    27.303187 0.00031125751 
         120    494.95945    740.24445    27.574488 0.00031042097 
       121.5    505.49607    740.24445    27.852409 0.0003096787 
         123    505.04427    740.24445    28.235487 0.00031010946 
       124.5    503.15888    740.24445    28.503124 0.00030927723 
         126    499.96635    740.24445    28.812313 0.00030891033 
       127.5    499.42437    740.24445    29.143108 0.00030878097 
         129    496.22057    740.24445    29.395099 0.00030782937 
       130.5    498.14133    740.24445    29.816836 0.00030865682 
         132     493.8582    740.24445     30.24853 0.00030956737 
       133.5    494.60221    740.24445    30.554339 0.00030918361 
         135    501.30026    740.24445    30.897508 0.00030918223 
       136.5      501.681    740.24445    31.202315 0.00030880121 
         138    497.33266    740.24445    31.524929 0.00030860281 
       139.5    498.07135    740.24445     31.84848 0.00030841774 
         141    501.40007    740.24445    32.229681 0.00030878894 
       142.5    494.40029    740.24445    32.813363 0.00031107186 
         144    498.85949    740.24445    33.268941 0.00031210543 
       145.5     501.0376    740.24445    33.430602 0.0003103888 
         147      497.517    740.24445    33.732623 0.00030999709 
       148.5    504.48524    740.24445    34.203507 0.00031114944 
         150    500.53173    740.24445    34.480373 0.00031053141 
       151.5    493.46083    740.24445    34.690548 0.00030933094 
         153    497.07861    740.24445    34.982009 0.00030887173 
       154.5    497.06074    740.24445    35.323114 0.0003088555 
         156    497.38043    740.24445    35.727695 0.00030938926 
       157.5    498.82929    740.24445    36.095439 0.0003095969 
         159    502.58301    740.24445    36.490318 0.00031003117 
       160.5    499.26692    740.24445    36.883329 0.0003104416 
         162    497.02918    740.24445    37.211034 0.00031029985 
       163.5    501.11422    740.24445     37.51934 0.00031000042 
         165    505.09403    740.24445    38.158053 0.00031241157 
       166.5    508.99913    740.24445    38.434065 0.00031183649 
         168     496.6493    740.24445    38.849141 0.00031238989 
       169.5    492.11972    740.24445    39.157238 0.0003120809 
         171    498.19563    740.24445    39.431848 0.00031151277 
       172.5    500.80662    740.24445    39.691199 0.00031083503 
         174    498.57776    740.24445      40.0992 0.00031132307 
       175.5    493.43254    740.24445    40.354952 0.00031063083 
         177    502.97506    740.24445    40.573768 0.00030966842 
       178.5    498.48125    740.24445    40.977187 0.00031011928 
         180    501.74289    740.24445    41.384537 0.00031059212 
       181.5    497.25677    740.24445    41.591803 0.00030956793 
         183    498.02917    740.24445    41.930306 0.00030952931 
       184.5    498.66041    740.24445    42.225847 0.00030917676 
         186    499.63451    740.24445    42.549493 0.00030903402 
       187.5    501.44746    740.24445    42.814192 0.00030846885 
         189    502.61307    740.24445    43.245655 0.00030910463 
       190.5    496.09777    740.24445    43.653716 0.00030956445 
         192    498.69111    740.24445    44.051102 0.00030994197 
       193.5    502.72239    740.24445    44.559024 0.00031108534 
         195    494.86391    740.24445    44.902902 0.00031107466 
       196.5    496.59849    740.24445    45.294552 0.00031139258 
         198    501.35694    740.24445    45.631107 0.00031132977 
       199.5    495.53332    740.24445    46.052572 0.00031184288 
ERROR: Fix in variable not computed at compatible time (../variable.cpp:1581)
