
units 		metal
dimension	3
boundary	p	p	p
atom_style	atomic

###READ ATOMS
read_data ${LOC2}/TC-EQ-STRUCTURE-5-50
read_data ../output/output-2//TC-EQ-STRUCTURE-5-50
  orthogonal box = (-1.10372 -5.51858 -1.10372) to (26.1037 130.519 26.1037)
  1 by 8 by 2 MPI processor grid
  reading atoms ...
  5000 atoms
  reading velocities ...
  5000 velocities

###load potential
pair_style sw
pair_coeff * * pot/Si.sw Si
Reading potential file pot/Si.sw with DATE: 2007-06-11
mass * 28.0855


####fix ID group-ID thermal/conductivity N edim Nbin keyword value ...
reset_timestep 0

fix 1 all thermal/conductivity ${swap_every} y ${TC_num_layers} swap ${num_swap}
fix 1 all thermal/conductivity 1000 y ${TC_num_layers} swap ${num_swap}
fix 1 all thermal/conductivity 1000 y 180 swap ${num_swap}
fix 1 all thermal/conductivity 1000 y 180 swap 2

fix       2 all nve

#TEMPERATURE PROFILE
compute   KE all ke/atom
variable  temp1 atom c_KE/(1.5*0.00008617)
compute   layers all chunk/atom bin/1d y lower 2.0 #units reduced
fix 3 all ave/chunk 1 ${N_TC} ${N_TC} layers v_temp1 file ${LOC2}/TC-TEMP-PROFILE-5-50
fix 3 all ave/chunk 1 200000 ${N_TC} layers v_temp1 file ${LOC2}/TC-TEMP-PROFILE-5-50
fix 3 all ave/chunk 1 200000 200000 layers v_temp1 file ${LOC2}/TC-TEMP-PROFILE-5-50
fix 3 all ave/chunk 1 200000 200000 layers v_temp1 file ../output/output-2//TC-TEMP-PROFILE-5-50

thermo ${thermo_save}
thermo 1000

variable A equal lx*lz
variable flux equal f_1/((time-0.000000000001)*v_A) #ADD -0.000001 to avoid division by zero
thermo_style custom time temp v_A f_1 v_flux

run ${N_TC}
run 200000
Neighbor list info ...
  1 neighbor list requests
  update every 1 steps, delay 10 steps, check yes
  max neighbors/atom: 2000, page size: 100000
  master list distance cutoff = 5.77118
  ghost atom cutoff = 5.77118
  binsize = 2.88559 -> bins = 10 48 10
Memory usage per processor = 2.6492 Mbytes
Time Temp A 1 flux 
           0    498.07169    740.24445            0           -0 
           1    491.06234    740.24445    0.3198404 0.00043207403 
           2    501.51745    740.24445    0.5856816 0.00039560013 
           3    497.46334    740.24445    1.1168483 0.00050291869 
           4    497.06047    740.24445    1.4683791 0.00049591022 
           5    493.31514    740.24445    1.6689042 0.00045090623 
           6    493.61035    740.24445    2.0492787 0.00046139684 
           7    500.20996    740.24445    2.3289545 0.00044945665 
           8    500.54977    740.24445    2.8639213 0.00048361074 
           9    504.83876    740.24445     3.093645 0.00046435786 
          10    500.47936    740.24445    3.5455819 0.00047897447 
          11    494.90338    740.24445    3.9064594 0.00047975054 
          12    492.74673    740.24445    4.2413503 0.00047747181 
          13    498.38773    740.24445    4.5246167 0.00047017906 
          14    492.35706    740.24445    4.7998777 0.00046315566 
          15    497.41838    740.24445    5.1805866 0.00046656539 
          16    492.81372    740.24445     5.489398 0.00046347848 
          17    501.82121    740.24445    5.8322943 0.0004634633 
          18    497.04761    740.24445    6.0766341 0.00045605311 
          19    496.54717    740.24445    6.3547563 0.00045182488 
          20    496.74107    740.24445    6.5916771 0.00044523651 
          21    506.04109    740.24445    6.9179968 0.00044502653 
          22    499.01097    740.24445    7.1934768 0.00044171384 
          23    493.29991    740.24445    7.5211934 0.00044175733 
          24    490.38597    740.24445    7.9238495 0.00044601536 
          25    502.30451    740.24445    8.1698862 0.00044146964 
          26    501.45698    740.24445    8.3832095 0.00043557386 
          27    493.17361    740.24445    8.6875239 0.00043466742 
          28    498.52668    740.24445    8.9535816 0.00043197996 
          29    498.21033    740.24445    9.2210076 0.00042954159 
          30    503.28235    740.24445    9.5527335 0.00043016121 
          31    501.01885    740.24445    9.9146915 0.0004320583 
          32    496.28531    740.24445    10.206678 0.0004308829 
          33    497.88159    740.24445    10.596545 0.00043378567 
          34    498.41497    740.24445    10.901973 0.00043316266 
          35    492.33893    740.24445    11.271249 0.00043503965 
          36    493.03954    740.24445    11.510992 0.00043195161 
          37    499.50158    740.24445    11.905599 0.00043468473 
          38    494.54457    740.24445    12.361473 0.00043945201 
          39    497.17679    740.24445    12.614904 0.00043696252 
          40    503.91855    740.24445    13.351803 0.00045092548 
          41    504.68998    740.24445    13.720507 0.00045207569 
          42    500.94698    740.24445    14.075034 0.00045271512 
          43    495.66352    740.24445    14.304657 0.0004494008 
          44    496.42226    740.24445    14.652102 0.00044985453 
          45    496.97733    740.24445    15.054562 0.00045193965 
          46    505.18063    740.24445    15.529737 0.00045606958 
          47    496.53347    740.24445    15.898297 0.00045695938 
          48    500.81214    740.24445    16.302633 0.00045881897 
          49    498.11159    740.24445    16.602645 0.0004577265 
          50    495.75089    740.24445    16.745428 0.00045242969 
          51    500.09189    740.24445    17.412632 0.00046123164 
          52    497.75745    740.24445    17.840563  0.000463479 
          53    498.35488    740.24445    18.162483 0.00046293944 
          54    509.62816    740.24445    18.405637 0.00046044943 
          55    498.25728    740.24445    18.656387 0.00045823651 
          56    486.96736    740.24445    19.170036 0.00046244462 
          57    500.11047    740.24445    19.580737 0.00046406523 
          58    492.52151    740.24445    19.902223 0.00046355196 
          59    508.01989    740.24445    20.264306 0.00046398567 
          60    496.49184    740.24445    20.721928 0.00046655597 
          61     497.0988    740.24445    21.156604 0.00046853384 
          62    500.04202    740.24445    21.417712 0.00046666606 
          63    495.74175    740.24445    21.708889 0.00046550235 
          64    501.32455    740.24445    22.091297 0.00046630071 
          65    495.19877    740.24445    22.341424 0.00046432529 
          66    499.92921    740.24445    22.633721 0.00046327287 
          67    495.91423    740.24445    22.982825 0.00046339725 
          68    491.47402    740.24445    23.398855 0.00046484754 
          69    496.42252    740.24445      23.8341 0.00046663199 
          70    501.77275    740.24445    24.322249 0.00046938643 
          71    497.79645    740.24445    24.895063 0.00047367419 
          72    496.89241    740.24445    25.000334 0.00046907054 
          73    497.65857    740.24445    25.323211 0.00046861992 
          74     489.6979    740.24445     25.76533 0.00047035833 
          75    497.37042    740.24445    26.177385 0.00047150883 
          76     493.4024    740.24445    26.541248 0.00047177246 
          77    501.26234    740.24445     26.86104 0.00047125605 
          78    501.25222    740.24445    27.308675 0.00047296703 
          79    497.67293    740.24445    27.578851 0.00047160013 
          80    491.37442    740.24445    27.950315 0.00047197779 
          81    500.56108    740.24445    28.311578 0.00047217598 
          82    501.79946    740.24445    28.547978 0.0004703123 
          83    501.12052    740.24445    28.916931 0.00047065096 
          84    499.50102    740.24445    29.199685 0.00046959527 
          85    500.78557    740.24445    29.368144 0.00046674795 
          86    495.16266    740.24445    29.801208 0.00046812331 
          87    495.30442    740.24445    30.139918 0.00046800194 
          88    500.92673    740.24445    30.367739 0.00046618106 
          89    495.02038    740.24445     30.97121 0.00047010298 
          90    502.67108    740.24445    31.323378 0.00047016568 
          91    501.12657    740.24445    31.589809 0.00046895422 
          92    501.63847    740.24445    31.964722 0.00046936203 
          93    502.64999    740.24445     32.42352 0.00047097955 
          94    495.90329    740.24445    32.974199 0.00047388313 
          95    497.39851    740.24445    33.321539 0.00047383407 
          96    499.39047    740.24445    33.656322 0.00047360935 
          97    499.06101    740.24445    33.951352 0.00047283562 
          98    501.54325    740.24445    34.285124 0.00047261173 
          99    500.11337    740.24445    34.717139 0.00047373293 
         100    496.83913    740.24445     34.94255 0.00047204069 
         101    501.40259    740.24445    35.290355 0.00047201902 
         102    499.13191    740.24445    35.597183 0.00047145506 
         103    495.30361    740.24445     35.93874 0.00047135755 
         104    504.16829    740.24445    36.233666 0.00047065619 
         105    494.60675    740.24445    36.545107 0.00047018067 
         106    500.21513    740.24445    36.874483 0.00046994271 
         107    504.82793    740.24445    37.168399 0.00046926149 
         108    491.46111    740.24445    37.582666 0.00047009828 
         109    504.04386    740.24445     37.84939 0.00046909113 
         110    500.78792    740.24445     38.13151 0.00046829138 
         111    502.39381    740.24445    38.424195 0.0004676346 
         112    499.69985    740.24445    38.753184 0.00046742744 
         113    490.29354    740.24445    38.983947 0.00046604967 
         114     496.1676    740.24445    39.336512 0.00046613943 
         115    501.43119    740.24445    39.685401 0.00046618444 
         116    497.34953    740.24445     40.01562 0.00046601125 
         117    498.29222    740.24445    40.392498 0.00046637975 
         118    494.07741    740.24445    40.590298 0.00046469187 
         119    494.03704    740.24445    41.007964 0.0004655283 
         120    500.20375    740.24445    41.368848 0.00046571157 
         121    497.41797    740.24445    41.612017 0.00046457757 
         122    497.51975    740.24445    41.971489 0.00046474998 
         123    496.77572    740.24445    42.245119 0.00046397681 
         124    494.68778    740.24445    42.529698 0.00046333537 
         125     501.3259    740.24445    42.852296 0.00046311508 
         126    497.58183    740.24445    43.087455 0.00046196081 
         127    491.61497    740.24445    43.299856 0.00046058265 
         128    489.72736    740.24445    43.574785 0.00045988593 
         129    493.61079    740.24445     43.82386 0.00045892927 
         130    500.47665    740.24445    44.152439 0.0004588135 
         131    501.90971    740.24445    44.403583 0.00045790097 
         132    497.60954    740.24445    44.826438 0.00045875957 
         133    496.39175    740.24445    45.330542 0.00046043053 
         134    501.54378    740.24445    45.775861 0.00046148391 
         135    495.49598    740.24445    46.125195 0.00046156119 
         136    501.13763    740.24445    46.423831 0.00046113375 
         137    501.76466    740.24445    46.617891 0.00045968136 
         138    506.22289    740.24445    46.764396 0.0004577845 
         139    506.98973    740.24445    47.193769 0.00045866405 
         140    498.31627    740.24445    47.501409 0.00045835639 
         141    500.02792    740.24445    47.968369 0.00045957954 
         142     500.1372    740.24445    48.384911 0.0004603058 
         143    498.23258    740.24445    48.794165 0.00046095305 
         144    502.23884    740.24445    49.220754 0.00046175394 
         145    499.02549    740.24445    49.644297 0.00046251541 
         146    497.38141    740.24445    49.950331 0.00046217916 
         147    494.54439    740.24445    50.420634 0.00046335708 
         148    499.52297    740.24445    50.722306 0.00046297988 
         149    495.15337    740.24445    51.014875 0.0004625252 
         150    500.69608    740.24445    51.296656 0.00046197942 
         151     500.1755    740.24445    51.774314 0.00046319328 
         152    499.41749    740.24445     52.26503 0.00046450721 
         153    501.27926    740.24445     52.48209 0.00046338773 
         154     500.8649    740.24445    52.919458 0.00046421536 
         155    489.67922    740.24445    53.295164 0.00046449489 
         156     498.9276    740.24445    53.644257 0.00046454038 
         157    498.32817    740.24445    54.003393 0.00046467171 
         158    495.01377    740.24445    54.525877 0.00046619801 
         159    493.05868    740.24445    54.759744 0.00046525294 
         160    496.04628    740.24445    55.074167 0.00046499983 
         161     500.2388    740.24445    55.495392 0.00046564601 
         162    494.56265    740.24445    55.762488 0.00046499894 
         163    495.23481    740.24445     56.04684 0.00046450283 
         164    494.78591    740.24445    56.327462 0.00046398205 
         165    503.19123    740.24445    56.738941 0.00046453894 
         166    498.43935    740.24445    57.011377 0.00046395759 
         167    499.93836    740.24445      57.1887 0.00046261381 
         168    501.22895    740.24445    57.810159 0.00046485737 
         169    500.26795    740.24445    58.331043 0.00046627044 
         170    499.01404    740.24445    58.651846 0.00046607693 
         171    505.04405    740.24445    58.975036 0.00046590454 
         172    507.64427    740.24445    59.279167 0.00046558447 
         173    498.26697    740.24445    59.698668 0.00046616899 
         174    499.14297    740.24445    59.991877 0.00046576628 
         175    495.94683    740.24445    60.338485 0.00046578038 
         176    497.46108    740.24445    60.574549 0.00046494584 
         177    497.78466    740.24445    60.969956 0.00046533686 
         178    505.38451    740.24445     61.30795 0.00046528776 
         179    496.97827    740.24445    61.528374 0.00046435192 
         180    496.12792    740.24445    62.050176 0.00046568833 
         181     499.1902    740.24445    62.318248 0.00046511623 
         182    495.16424    740.24445    62.627375 0.00046485517 
         183    497.66533    740.24445    62.958437 0.00046475887 
         184    495.64943    740.24445    63.264121 0.0004644773 
         185    496.19287    740.24445    63.593536 0.00046437207 
         186    502.44452    740.24445    63.881994 0.00046397049 
         187    499.68052    740.24445    64.220341 0.00046393362 
         188    501.60009    740.24445    64.484841 0.00046336649 
         189    503.68311    740.24445    64.652409 0.00046211253 
         190    502.92617    740.24445    65.001131 0.00046215979 
         191    493.57992    740.24445    65.292424 0.00046180036 
         192    502.20271    740.24445    65.773813 0.00046278219 
         193    503.64219    740.24445    65.975396 0.00046179533 
         194    497.45402    740.24445    66.334477 0.00046191538 
         195    497.01218    740.24445      66.6055 0.00046142415 
         196    500.25662    740.24445    66.939248 0.00046137026 
         197    495.48082    740.24445    67.476847 0.0004627148 
         198    498.68364    740.24445    67.856293 0.00046296673 
         199     497.7941    740.24445    68.122314 0.00046244614 
         200    497.01676    740.24445    68.509192 0.00046274708 
Loop time of 510.722 on 16 procs for 200000 steps with 5000 atoms

Performance: 33.834 ns/day, 0.709 hours/ns, 391.603 timesteps/s
99.7% CPU use with 16 MPI tasks x no OpenMP threads

MPI task timing breakdown:
Section |  min time  |  avg time  |  max time  |%varavg| %total
---------------------------------------------------------------
Pair    | 431.27     | 450.66     | 471.28     |  46.6 | 88.24
Neigh   | 0          | 0          | 0          |   0.0 |  0.00
Comm    | 16.995     | 36.331     | 53.807     | 154.5 |  7.11
Output  | 0.031679   | 0.045118   | 0.072603   |   3.6 |  0.01
Modify  | 6.4014     | 6.6152     | 6.7916     |   4.8 |  1.30
Other   |            | 17.07      |            |       |  3.34

Nlocal:    312.5 ave 326 max 302 min
Histogram: 1 1 2 2 3 5 0 1 0 1
Nghost:    1136.5 ave 1153 max 1117 min
Histogram: 1 0 0 3 1 4 4 2 0 1
Neighs:    0 ave 0 max 0 min
Histogram: 16 0 0 0 0 0 0 0 0 0
FullNghs:  10875.1 ave 11355 max 10485 min
Histogram: 1 2 1 2 4 3 1 1 0 1

Total # of neighbors = 174002
Ave neighs/atom = 34.8004
Neighbor list builds = 0
Dangerous builds = 0

print ${flux} file ${LOC2}/flux-5-50.dat
print 0.000462747080014259 file ${LOC2}/flux-5-50.dat
print 0.000462747080014259 file ../output/output-2//flux-5-50.dat
0.000462747080014259


####-------------------SOME INFO ON VARIOUS FIXES---------------------------


####write_data snap/data.${N_steps}
#####dump dump1 all custom ${snap_save} snap/snap.*.lammps id type x y z


##### CONSTRUCT A TEMPERATURE PROFILE
##### THESE BINS ARE NOT RELATED TO thermal/conductivity Bins
#####  bin/1d args = dim origin delta
#####    dim = x or y or z
#####    origin = lower or center or upper or coordinate value (distance units)
#####    delta = thickness of spatial bins in dim (distance units)



#####fix ID group-ID ave/chunk Nevery Nrepeat Nfreq chunkID value1 value2 ... keyword args ...
#####ID, group-ID are documented in fix command
#####ave/chunk = style name of this fix command
#####Nevery = use input values every this many timesteps
#####Nrepeat = # of times to use input values for calculating averages
#####Nfreq = calculate averages every this many timesteps
#####chunkID = ID of compute chunk/atom command
#####one or more input values can be listed
#####value = vx, vy, vz, fx, fy, fz, density/mass, density/number, temp, c_ID, c_ID[I], f_ID, f_ID[I], v_name

#####For example, if Nevery=2, Nrepeat=6, and Nfreq=100, then values on timesteps 90,92,94,96,98,100 will be used to compute the final aver
####age on timestep 100. Similarly for timesteps 190,192,194,196,198,200 on timestep 200, etc. If Nrepeat=1 and Nfreq = 100, then no time a
####veraging is done; values are simply generated on timesteps 100,200,etc.





#####fix ID group-ID thermal/conductivity N edim Nbin keyword value ...
#####ID, group-ID are documented in fix command
#####thermal/conductivity = style name of this fix command
#####N = perform kinetic energy exchange every N steps
#####edim = x or y or z = direction of kinetic energy transfer
#####Nbin = # of layers in edim direction (must be even number)
#####zero or more keyword/value pairs may be appended
#####keyword = swap
#####swap value = Nswap = number of swaps to perform every N steps


Total wall time: 0:11:04
