LAMMPS data file via write_data, version 30 Jul 2016, timestep = 50000

5000 atoms
1 atom types

-1.1037168688014471e+00 2.6103716868801385e+01 xlo xhi
-5.5185843440072304e+00 1.3051858434400725e+02 ylo yhi
-1.1037168688014471e+00 2.6103716868801385e+01 zlo zhi

Masses

1 28.0855

Atoms # atomic

2 1 3.2360292845844457e-01 -4.1688021713102836e+00 2.1750716744592896e-01 0 0 0
3 1 -9.1328401973005491e-01 -2.6803685597315514e+00 1.7359810474283974e+00 0 0 0
7 1 1.7120932618300859e+00 -2.8641561048460553e+00 -1.0650327605282142e+00 0 0 0
11 1 4.2767163007728497e+00 -2.7003073720512485e+00 1.7055670380838932e+00 0 0 0
10 1 5.8318301421305749e+00 -3.9762259002385090e+00 2.6473392817174479e-01 0 0 0
2009 1 4.3759287378431546e+00 -5.4806697445092993e+00 9.8626299748765707e+00 0 0 0
19 1 9.9207480574870548e+00 -2.6133876470946875e+00 1.6926160240423980e+00 0 0 0
1037 1 2.3497883573624371e+01 -5.4729090803818394e+00 7.1400789263998439e+00 0 0 0
18 1 1.1166638419792401e+01 -4.2007088500781986e+00 3.5439355002732154e-01 0 0 0
23 1 1.2610010914411358e+01 -2.9453458448427718e+00 -9.8970047157945729e-01 0 0 0
27 1 1.5115346635819842e+01 -2.8018292924401464e+00 1.6449744131604673e+00 0 0 0
26 1 1.6637651898854465e+01 -3.9802548607389645e+00 2.9502364032224404e-01 0 0 0
1029 1 1.7998133583024767e+01 -5.5102898541278478e+00 7.0965423843366668e+00 0 0 0
34 1 2.2119650489451850e+01 -3.9164146940904865e+00 3.0445042743223760e-01 0 0 0
35 1 2.0770113987417432e+01 -2.5901592439433263e+00 1.7313888445963563e+00 0 0 0
1005 1 1.6870208815019849e+00 -5.4131053482657876e+00 7.0555469735504390e+00 0 0 0
41 1 -1.0482203453581980e+00 -6.4341979222179005e-02 -1.0388924002754198e+00 0 0 0
45 1 1.5328965626438154e+00 7.3505839279554119e-02 1.5915743964182421e+00 0 0 0
1009 1 4.3799678713438617e+00 -5.3910564180401650e+00 4.2391149468149081e+00 0 0 0
8 1 2.9677786054017270e+00 -1.3583857982693159e+00 2.6191136058477638e-01 0 0 0
53 1 6.9804521422345527e+00 -3.3461048376822213e-02 1.7267679234736684e+00 0 0 0
50 1 5.7558242577372098e+00 1.3216194995064718e+00 1.5309264520157423e-01 0 0 0
16 1 8.4328775725622194e+00 -1.4500485184755558e+00 3.1990276997454148e-01 0 0 0
57 1 9.8832492960573628e+00 -1.7717503784310348e-01 -1.0520788157410856e+00 0 0 0
58 1 1.1231007499906797e+01 1.2651656723421971e+00 1.6762942081830778e-01 0 0 0
24 1 1.3911117706130437e+01 -1.4152004189302474e+00 2.1822991444752446e-01 0 0 0
61 1 1.2505656871990322e+01 -1.5529189438384988e-01 1.6803516790255379e+00 0 0 0
66 1 1.6623261013659096e+01 1.3642539888042777e+00 1.9955073387332625e-01 0 0 0
1001 1 -9.3983126067995160e-01 -5.4492723465749577e+00 4.4340536970324385e+00 0 0 0
69 1 1.7892391509514862e+01 -1.3813762334896790e-01 1.4495824521092380e+00 0 0 0
32 1 1.9326939937257791e+01 -1.3872500575071303e+00 1.4193069421705454e-01 0 0 0
73 1 2.0626405689346484e+01 9.5331054233520063e-03 -1.0856885914914711e+00 0 0 0
77 1 2.3497560335184016e+01 9.1079103145022294e-02 1.6701599130187452e+00 0 0 0
40 1 2.4712780564131222e+01 -1.4498126138647822e+00 4.0276942822167100e-01 0 0 0
42 1 1.5079551663169968e-01 1.3676281699523785e+00 2.1378390955199333e-01 0 0 0
37 1 2.3577494598183328e+01 -5.3396988450597576e+00 1.6546338365891893e+00 0 0 0
51 1 4.4385766383718552e+00 2.7173794846819619e+00 1.4957898105737994e+00 0 0 0
48 1 2.9905317947528340e+00 4.0034459195049497e+00 1.4721353720022223e-01 0 0 0
56 1 8.6494890970793463e+00 3.9029758975788926e+00 3.3034142215040085e-01 0 0 0
59 1 9.8994439722289744e+00 2.5094083647288175e+00 1.6901716885515068e+00 0 0 0
64 1 1.3835247152300104e+01 4.0498784160688350e+00 2.7117761263631074e-01 0 0 0
67 1 1.5247901540363932e+01 2.5826521855978717e+00 1.5854518457069642e+00 0 0 0
72 1 1.9367869588282900e+01 3.9746900729261729e+00 4.0127793969939823e-01 0 0 0
71 1 1.7989739976531759e+01 2.7895906842914844e+00 -1.0119044583508248e+00 0 0 0
74 1 2.1987191019502436e+01 1.2852273460992323e+00 3.7912622999060597e-01 0 0 0
75 1 2.0631476882256411e+01 2.6618424125016951e+00 1.7095518545984831e+00 0 0 0
79 1 2.3316018855205915e+01 2.5942162829359683e+00 -1.0594281258542733e+00 0 0 0
80 1 2.4683432492643270e+01 4.0782413478405628e+00 9.5398893320331940e-02 0 0 0
43 1 2.5964882931356847e+01 2.6481819795673331e+00 1.5490886592185480e+00 -1 0 0
82 1 3.2804056308857593e-01 6.8435090926463156e+00 3.7143146642926117e-01 0 0 0
85 1 1.6107529625013810e+00 5.4276372777862365e+00 1.6091306591089298e+00 0 0 0
33 1 2.0717013327595854e+01 -5.4825456207325658e+00 -1.0025912265608929e+00 0 0 0
2029 1 1.7989659741498823e+01 -5.4493723684916233e+00 1.2450405264218878e+01 0 0 0
91 1 4.3006359064743185e+00 8.0873711096948693e+00 1.6818893963555812e+00 0 0 0
90 1 5.6732913387038391e+00 6.6411105013334097e+00 2.2876310343563397e-01 0 0 0
93 1 6.9727713489755834e+00 5.3181555969803540e+00 1.6356453060611789e+00 0 0 0
98 1 1.1111491653548407e+01 6.7666427180402628e+00 4.3049909630649463e-01 0 0 0
101 1 1.2571020879537539e+01 5.3600301086965736e+00 1.6760761564562576e+00 0 0 0
106 1 1.6540089092915114e+01 6.7849257362458344e+00 3.0010849435760778e-01 0 0 0
29 1 1.8021587774740709e+01 -5.3566557307367759e+00 1.6392514403195568e+00 0 0 0
109 1 1.7988290090447112e+01 5.4256094541286251e+00 1.6332835856107109e+00 0 0 0
114 1 2.1995858446661817e+01 6.6202685834584436e+00 2.6028414306290176e-01 0 0 0
115 1 2.0653201873558622e+01 8.1406670262449712e+00 1.5112076571227810e+00 0 0 0
113 1 2.0706877890516356e+01 5.3039618607380676e+00 -1.0762757584461131e+00 0 0 0
117 1 2.3380234322757040e+01 5.3431346255543462e+00 1.6532273676482558e+00 0 0 0
81 1 2.6039935226727792e+01 5.6245513443163375e+00 -1.0540233116602984e+00 -1 0 0
125 1 1.5399770611763735e+00 1.0800180127093412e+01 1.6197008206731183e+00 0 0 0
88 1 2.9987208607340681e+00 9.5195740030548155e+00 2.7268170628870725e-01 0 0 0
25 1 1.5326211790437799e+01 -5.4306454536288129e+00 -9.5463201314077417e-01 0 0 0
133 1 6.9867913836729887e+00 1.0663892366822926e+01 1.6930538867238802e+00 0 0 0
99 1 9.6664319663414542e+00 8.1244402587801900e+00 1.7050091634838238e+00 0 0 0
96 1 8.3733405063580282e+00 9.5038417238481525e+00 2.3405624794662608e-01 0 0 0
13 1 7.2560891004297865e+00 -5.4224398122572950e+00 1.5671134246240117e+00 0 0 0
103 1 1.2370879955104513e+01 8.0212977466733921e+00 -1.0860909196124628e+00 0 0 0
104 1 1.3766125049050622e+01 9.4344031614523107e+00 1.3518034019860511e-01 0 0 0
141 1 1.2503328514141256e+01 1.0838855345194037e+01 1.5953457535830511e+00 0 0 0
107 1 1.5078198199719944e+01 8.1476987695767722e+00 1.4950821139541861e+00 0 0 0
9 1 4.4722429370684855e+00 -5.4641574555928969e+00 -1.0119580256544676e+00 0 0 0
149 1 1.7785801838122982e+01 1.0836093378667945e+01 1.5507676620158186e+00 0 0 0
112 1 1.9241207794021676e+01 9.5524892882118415e+00 1.5179667845807029e-01 0 0 0
157 1 2.3254636484398123e+01 1.0941942937835499e+01 1.4730832354718424e+00 0 0 0
120 1 2.4714866290240852e+01 9.5068534011478985e+00 2.5239334050329276e-01 0 0 0
83 1 2.5986504473489294e+01 8.2363083345142414e+00 1.6314791323408182e+00 -1 0 0
2001 1 -1.0515397544119374e+00 -5.4757601242866087e+00 9.7536634747039095e+00 0 0 0
1007 1 1.6074975998232381e+00 -2.6914556579873170e+00 4.2388399906342746e+00 0 0 0
6 1 2.9211298413789453e+00 -4.0722563378473762e+00 2.9737024664487004e+00 0 0 0
1015 1 7.0317574179687483e+00 -2.7656388706698705e+00 4.3024733022442119e+00 0 0 0
1010 1 5.6927263440228879e+00 -4.0424148804778461e+00 5.8178418117172042e+00 0 0 0
14 1 8.4976090112896596e+00 -4.0451782110760792e+00 3.0317240758360220e+00 0 0 0
1017 1 9.7278803636348279e+00 -5.5097214204896305e+00 4.4406030390201874e+00 0 0 0
1018 1 1.1225607399115953e+01 -4.0642225433319048e+00 5.6766846776947659e+00 0 0 0
22 1 1.3848796315321968e+01 -4.1398181852045761e+00 3.0128291619035079e+00 0 0 0
1023 1 1.2633407930746600e+01 -2.8122987757334172e+00 4.4379243580920811e+00 0 0 0
1031 1 1.7927359400028141e+01 -2.7759246655157965e+00 4.2546482646651995e+00 0 0 0
30 1 1.9370714105599330e+01 -4.0549413995837984e+00 2.9900096665453795e+00 0 0 0
1033 1 2.0769263696444874e+01 -5.3196335138103814e+00 4.3929899200720897e+00 0 0 0
38 1 2.4950966109939809e+01 -4.0043272225905753e+00 3.1168828872145284e+00 0 0 0
1039 1 2.3468415743012127e+01 -2.5176494494190029e+00 4.3832497562611143e+00 0 0 0
4 1 2.2054470202635490e-01 -1.2310449477859442e+00 3.0696577609709235e+00 0 0 0
1042 1 2.6328004985169778e-01 1.5682756533228903e+00 5.8301280296889555e+00 0 0 0
1049 1 4.2710948472828054e+00 6.1173054939276821e-02 4.4429359070722665e+00 0 0 0
1008 1 2.9140158739835940e+00 -1.4482356306505964e+00 5.7439529919778245e+00 0 0 0
12 1 5.5685018465139740e+00 -1.3953549229647582e+00 3.0067741874226415e+00 0 0 0
54 1 8.4450972291359765e+00 1.3099162757132381e+00 3.0704789788754256e+00 0 0 0
1057 1 9.8013898148928469e+00 -7.7023019359869493e-02 4.3703238261344852e+00 0 0 0
1016 1 8.3296117309801225e+00 -1.2945030635756427e+00 5.6524076352889674e+00 0 0 0
20 1 1.1193601485004548e+01 -1.4431099928266244e+00 3.1377708235853636e+00 0 0 0
1058 1 1.1129309695952232e+01 1.4265055267214024e+00 5.7761233150649423e+00 0 0 0
1024 1 1.3891310733744552e+01 -1.3624479134685348e+00 5.7067397529999582e+00 0 0 0
1065 1 1.5248121411974239e+01 -6.7214467195989749e-03 4.3370754375432385e+00 0 0 0
28 1 1.6447294853051709e+01 -1.3839047489680534e+00 2.8727478464192098e+00 0 0 0
1073 1 2.0516185417261454e+01 1.1178611890671560e-01 4.3872980194263969e+00 0 0 0
36 1 2.2012050615554074e+01 -1.1697701898770858e+00 3.0570975357526256e+00 0 0 0
1041 1 -1.0452800596392073e+00 4.9429283017614963e-02 4.4164740494150960e+00 0 0 0
78 1 2.4776246672681538e+01 1.3377942595490639e+00 3.1595171818114669e+00 0 0 0
44 1 2.3890172993374745e-01 4.0484127197992423e+00 3.0505046024340357e+00 0 0 0
1047 1 1.5828665782502522e+00 2.8000066372656942e+00 4.3524957327483547e+00 0 0 0
46 1 3.1130777566336687e+00 1.4169386880806012e+00 2.9544717907822986e+00 0 0 0
1048 1 3.1004699331381964e+00 4.0605047529477654e+00 5.6417786572972863e+00 0 0 0
52 1 5.8208905721191506e+00 3.8637727927020733e+00 3.0493419689772243e+00 0 0 0
1055 1 7.1737908930620540e+00 2.6275820249011854e+00 4.4717652853042029e+00 0 0 0
1056 1 8.4330764806454006e+00 4.1288006605494143e+00 5.7828037643881158e+00 0 0 0
60 1 1.1122233255242508e+01 4.0509641946648465e+00 3.0164269022147949e+00 0 0 0
62 1 1.3877694357838646e+01 1.2764047958943223e+00 2.9247581252539994e+00 0 0 0
1063 1 1.2555581061534209e+01 2.6962516459557166e+00 4.2374652241972512e+00 0 0 0
68 1 1.6663545610912685e+01 4.0348875286309793e+00 2.9248282488631410e+00 0 0 0
1071 1 1.7897401932142241e+01 2.7800550312612513e+00 4.3695349654264746e+00 0 0 0
70 1 1.9158363787014924e+01 1.2744221206622413e+00 2.9437511148514157e+00 0 0 0
76 1 2.2024583752152676e+01 4.0585801691456869e+00 3.0324348536335042e+00 0 0 0
1079 1 2.3475912271691087e+01 2.7113262033081575e+00 4.4618834646165766e+00 0 0 0
1087 1 1.5550465540936109e+00 8.0315327224821118e+00 4.3594395985041610e+00 0 0 0
1089 1 4.4505650432808652e+00 5.3365743041204912e+00 4.2503849736824710e+00 0 0 0
86 1 3.0121445810740597e+00 6.6983845128583486e+00 2.9962840614632986e+00 0 0 0
94 1 8.2697298298326167e+00 6.8411454534879592e+00 3.0016968212322661e+00 0 0 0
1097 1 9.8063733643157622e+00 5.4484312978557190e+00 4.3069209180332928e+00 0 0 0
1103 1 1.2537417626680435e+01 8.0748829621558471e+00 4.1864820387816533e+00 0 0 0
102 1 1.4008360205753508e+01 6.7056565812622555e+00 2.9301627290442589e+00 0 0 0
1105 1 1.5277355447052116e+01 5.3794394473601077e+00 4.2308257419057744e+00 0 0 0
110 1 1.9311273604962345e+01 6.7851478497305004e+00 2.9775798515786671e+00 0 0 0
1113 1 2.0640936526093352e+01 5.3491100084097871e+00 4.4326417505991014e+00 0 0 0
118 1 2.4674811540383853e+01 6.7288008054465154e+00 2.9482973486998350e+00 0 0 0
1119 1 2.3220602682126014e+01 8.0870384120373444e+00 4.3517616402746482e+00 0 0 0
1081 1 2.6076146870822779e+01 5.2617317787753972e+00 4.4041109470374211e+00 -1 0 0
84 1 2.5403706803985510e-01 9.4922310184373515e+00 3.1144285061326178e+00 0 0 0
1129 1 4.3093719828559545e+00 1.0819262038105144e+01 4.3849400897481523e+00 0 0 0
1095 1 6.8969761448809983e+00 8.1250164457833733e+00 4.3801872789071536e+00 0 0 0
92 1 5.5444373932064339e+00 9.3976611824850949e+00 3.0208576687018383e+00 0 0 0
1137 1 9.6589396575943542e+00 1.0760409472986279e+01 4.4920164196782189e+00 0 0 0
100 1 1.1189474189744692e+01 9.4395764942619120e+00 3.0127854436483679e+00 0 0 0
1145 1 1.5118637695477723e+01 1.0620242580964510e+01 4.4076619554950547e+00 0 0 0
108 1 1.6525850955890050e+01 9.3113445395106851e+00 2.9060375087473869e+00 0 0 0
1111 1 1.7906296595277837e+01 8.0982350474267406e+00 4.4477140140083913e+00 0 0 0
1153 1 2.0569883047718459e+01 1.0895375544306400e+01 4.3341062362256908e+00 0 0 0
116 1 2.1895612112496149e+01 9.4714014317165489e+00 2.8271490051167225e+00 0 0 0
1120 1 2.4609818926039225e+01 9.2745259030199048e+00 5.6117142779471809e+00 0 0 0
1121 1 2.5965436738540635e+01 1.0731581073445859e+01 4.4565792375555811e+00 -1 0 0
1002 1 3.9486574703838118e-01 -4.0613962596352762e+00 5.6948401330957692e+00 0 0 0
1011 1 4.4123717613920599e+00 -2.7640134998542281e+00 7.1565036086642611e+00 0 0 0
1006 1 2.9393675876325838e+00 -4.1287085074745189e+00 8.4213789315224474e+00 0 0 0
1013 1 7.1154087676170850e+00 -5.4744462294579188e+00 7.0624656170787787e+00 0 0 0
1019 1 9.7218379418806862e+00 -2.7804480656084913e+00 6.9749930070162831e+00 0 0 0
1014 1 8.3886973429214731e+00 -4.0278694891900697e+00 8.3562679591046400e+00 0 0 0
1021 1 1.2509310417637751e+01 -5.4848150885415841e+00 7.0358290589009815e+00 0 0 0
1022 1 1.3978594717966958e+01 -4.1866204608883537e+00 8.3649663129758203e+00 0 0 0
1027 1 1.5185711941109139e+01 -2.8214318307597193e+00 7.1393076324191060e+00 0 0 0
1026 1 1.6509532364052301e+01 -4.1749103572292761e+00 5.7510372357921966e+00 0 0 0
1030 1 1.9481938053222621e+01 -4.1483184117139258e+00 8.3798549886272813e+00 0 0 0
1034 1 2.2211643705521254e+01 -3.9628771083826062e+00 5.8010639396261343e+00 0 0 0
1035 1 2.0673710409765619e+01 -2.6328429603579218e+00 6.8659530126753490e+00 0 0 0
1038 1 2.4873567947927356e+01 -4.1190245139109445e+00 8.4572638350912044e+00 0 0 0
1003 1 -9.9455975819164522e-01 -2.7048666478531733e+00 7.0734046159105270e+00 0 0 0
1045 1 1.6815809797032479e+00 6.6066082976405163e-02 7.0927510390723656e+00 0 0 0
1004 1 3.9371667471210059e-01 -1.3138582765062166e+00 8.4424332199182821e+00 0 0 0
1053 1 7.0200428228390486e+00 -6.1376520239067020e-02 7.0737740224422296e+00 0 0 0
1012 1 5.7979488890619884e+00 -1.4629635558711707e+00 8.6105116033979989e+00 0 0 0
1020 1 1.1132776034567202e+01 -1.5495633989593409e+00 8.4221940790034644e+00 0 0 0
1061 1 1.2371199858521271e+01 -2.6132739477422021e-02 7.2240500882095660e+00 0 0 0
1028 1 1.6624128764358687e+01 -1.3177906557375036e+00 8.3660106237549439e+00 0 0 0
1069 1 1.7965560176867790e+01 -1.6407472470664165e-04 6.9789187236270918e+00 0 0 0
1032 1 1.9195345238395042e+01 -1.2944615644086144e+00 5.6707474385147556e+00 0 0 0
1074 1 2.1930333366247517e+01 1.3984283781248239e+00 5.6808301046485745e+00 0 0 0
1036 1 2.2074379451264033e+01 -1.2969168297656346e+00 8.3447967163088510e+00 0 0 0
1077 1 2.3393916220413107e+01 1.0050360696444881e-01 7.0450656237902090e+00 0 0 0
1040 1 2.4846686557438005e+01 -1.2740934756567173e+00 5.7577981361402504e+00 0 0 0
1044 1 4.0848224211795592e-01 4.1412534618752703e+00 8.4301933808795138e+00 0 0 0
1051 1 4.4566496534481335e+00 2.6580694390745729e+00 7.1176016358423411e+00 0 0 0
1046 1 3.0464308031095637e+00 1.3207564133383938e+00 8.4116541190822698e+00 0 0 0
1050 1 5.7269976356930297e+00 1.2875842353495794e+00 5.7074312137991647e+00 0 0 0
1052 1 5.6456804143953772e+00 4.1744447947618273e+00 8.4281287269940783e+00 0 0 0
1059 1 9.7795653348355902e+00 2.7253490580085558e+00 7.0025427901471771e+00 0 0 0
1054 1 8.4273165359897035e+00 1.2855386915960041e+00 8.4209242327766081e+00 0 0 0
1060 1 1.1200727171545044e+01 3.8817157810414011e+00 8.4322679668049361e+00 0 0 0
1064 1 1.3976502046742276e+01 4.0688207809109613e+00 5.6013598419982458e+00 0 0 0
1062 1 1.3888534165715116e+01 1.2291496135289972e+00 8.3216389822340169e+00 0 0 0
1066 1 1.6582294117805692e+01 1.3881198063753697e+00 5.7121830304238950e+00 0 0 0
1067 1 1.5173153945188515e+01 2.6809511067875875e+00 7.1151928618687679e+00 0 0 0
1068 1 1.6623778757331589e+01 4.0756808199605032e+00 8.3926603603683265e+00 0 0 0
1072 1 1.9154993038198992e+01 4.0609904951234643e+00 5.7520144607411412e+00 0 0 0
1070 1 1.9291347931509229e+01 1.3972960218233097e+00 8.4884840247059543e+00 0 0 0
1075 1 2.0509111289466894e+01 2.7388251228613396e+00 7.1350939654052077e+00 0 0 0
1076 1 2.2032419284290782e+01 4.0601144862693017e+00 8.5288535585672758e+00 0 0 0
1080 1 2.4683170031937038e+01 4.0913650783893329e+00 5.8979099221909097e+00 0 0 0
1078 1 2.4696722927255006e+01 1.4246847333346375e+00 8.5278166468539762e+00 0 0 0
1043 1 -1.0475984909450595e+00 2.8319885495550916e+00 7.2780638670969244e+00 0 0 0
1082 1 3.2401981944085523e-01 6.7064818508122217e+00 5.6632227674644025e+00 0 0 0
1085 1 1.7907252405581786e+00 5.4159517033774369e+00 7.0767109366048002e+00 0 0 0
1091 1 4.2776716320113986e+00 8.0970759080371586e+00 7.0793627574063471e+00 0 0 0
1086 1 2.9675051319411128e+00 6.8693668054268100e+00 8.5461399824698816e+00 0 0 0
1090 1 5.6976474363682339e+00 6.7409433198398130e+00 5.7515427731949247e+00 0 0 0
1093 1 6.9661240744714936e+00 5.4718894205276856e+00 7.0385454105912002e+00 0 0 0
1099 1 9.8295727314173824e+00 8.0616515644649720e+00 7.0368177721872449e+00 0 0 0
1094 1 8.4991041213569911e+00 6.6334792365705262e+00 8.3959427703791647e+00 0 0 0
1098 1 1.1143853037548336e+01 6.7227491797294370e+00 5.5839547028186560e+00 0 0 0
1101 1 1.2471864053394821e+01 5.2802585772331900e+00 6.9704241972307930e+00 0 0 0
1102 1 1.3968317715382666e+01 6.4991372176012128e+00 8.3421825668263647e+00 0 0 0
1106 1 1.6499176380727349e+01 6.7068425065673631e+00 5.6659734556305832e+00 0 0 0
1109 1 1.7979026206767667e+01 5.5795155542916044e+00 7.1264182852639326e+00 0 0 0
1110 1 1.9392707781447356e+01 6.7914577977353012e+00 8.5581867685807236e+00 0 0 0
1114 1 2.1923281838673777e+01 6.7283373361529542e+00 5.8811226260695211e+00 0 0 0
1117 1 2.3301502794890020e+01 5.4124338612653089e+00 7.2368064254399966e+00 0 0 0
1118 1 2.4681552394903910e+01 6.7572073380016411e+00 8.3984384024361098e+00 0 0 0
1083 1 -1.0487039112691470e+00 8.0839703469786510e+00 6.9077692045859989e+00 0 0 0
1125 1 1.6531140988730246e+00 1.0893676983995636e+01 7.0131501652314663e+00 0 0 0
1084 1 1.9674139049282971e-01 9.4757378289892671e+00 8.3817643360480218e+00 0 0 0
1088 1 2.9079636989914821e+00 9.4352192580503367e+00 5.6513359448557168e+00 0 0 0
1133 1 7.0507579975983772e+00 1.0828554613733372e+01 7.0122373833447167e+00 0 0 0
1092 1 5.6678218457706437e+00 9.4351679347427506e+00 8.4826924098642653e+00 0 0 0
1096 1 8.3073843749772607e+00 9.3221599386384693e+00 5.7907289055955218e+00 0 0 0
1141 1 1.2426039225674566e+01 1.0684763922324951e+01 7.2335411948643076e+00 0 0 0
1100 1 1.1120159322814565e+01 9.3695902100823059e+00 8.4518547265341848e+00 0 0 0
1104 1 1.3695916369398109e+01 9.2739247973215804e+00 5.8508026277261624e+00 0 0 0
1107 1 1.5214735643279111e+01 8.0028964057990510e+00 7.0175328058116326e+00 0 0 0
1108 1 1.6419458001732242e+01 9.3703720809023014e+00 8.5231415351853990e+00 0 0 0
1149 1 1.7813241073923905e+01 1.0777310271143808e+01 7.2303977226975782e+00 0 0 0
1112 1 1.9243255192662446e+01 9.4642279524163708e+00 5.7877512654742080e+00 0 0 0
1115 1 2.0680706323860786e+01 8.1734184129205563e+00 7.1233547952966223e+00 0 0 0
1116 1 2.1989517452699804e+01 9.5525828433512405e+00 8.4698404395421605e+00 0 0 0
1157 1 2.3238282259105372e+01 1.0766987443495674e+01 7.0352506133612653e+00 0 0 0
2007 1 1.6263782175608181e+00 -2.8051632775688913e+00 9.7265410319022259e+00 0 0 0
2002 1 2.9735155443010108e-01 -4.1371632923290713e+00 1.1118542230106888e+01 0 0 0
2121 1 2.6010938046443851e+01 1.0708912865081173e+01 9.7579515212477705e+00 -1 0 0
2003 1 -9.9696985212044809e-01 -2.7223791393319892e+00 1.2448154975045748e+01 0 0 0
2011 1 4.3133612736351097e+00 -2.7561139999712307e+00 1.2421950987677493e+01 0 0 0
2015 1 7.1385372532342846e+00 -2.8659154622248244e+00 9.8698806238762273e+00 0 0 0
2010 1 5.6793489569660549e+00 -4.1860844259082244e+00 1.1154230278530987e+01 0 0 0
2017 1 9.8078063051706366e+00 -5.4617034151761494e+00 9.5318358418707412e+00 0 0 0
2023 1 1.2581140425025508e+01 -2.7887226558009219e+00 9.7613937142631695e+00 0 0 0
2018 1 1.1175864429208390e+01 -4.2568792435472460e+00 1.1187092817180734e+01 0 0 0
2025 1 1.5317756081371924e+01 -5.4792041119007946e+00 9.6960950469359855e+00 0 0 0
2026 1 1.6636535929860791e+01 -4.1289791063673595e+00 1.1112079713853324e+01 0 0 0
2031 1 1.8005320290982635e+01 -2.7781799913086287e+00 9.7070649559337649e+00 0 0 0
2034 1 2.2212351498494893e+01 -4.2151896978591896e+00 1.1159188033054811e+01 0 0 0
2039 1 2.3343770549601139e+01 -2.7020311983969525e+00 9.7135913971157635e+00 0 0 0
2042 1 3.7034649143387405e-01 1.4118008555871380e+00 1.1188317273482966e+01 0 0 0
2041 1 -9.8364702383005298e-01 9.6599335371951825e-02 9.7585844063550127e+00 0 0 0
2049 1 4.4418066948883865e+00 1.2379109778258013e-03 9.9049850672534170e+00 0 0 0
2008 1 3.0226165117551806e+00 -1.5498139468664658e+00 1.1090590242552194e+01 0 0 0
2057 1 9.8944580263297262e+00 -5.4318229105433692e-02 9.5929393609478364e+00 0 0 0
2016 1 8.3937573823791443e+00 -1.2198542042867473e+00 1.1060622842359113e+01 0 0 0
2024 1 1.3864769302904973e+01 -1.3855950334540776e+00 1.1179748498519899e+01 0 0 0
2065 1 1.5244554222003682e+01 -9.3556695329589483e-03 9.7787805873172804e+00 0 0 0
2066 1 1.6542821368062810e+01 1.4079028008565699e+00 1.1093963185497699e+01 0 0 0
2032 1 1.9462577729782989e+01 -1.5034033544341767e+00 1.1157670429680078e+01 0 0 0
2073 1 2.0712762282251319e+01 -4.8030892788427704e-02 9.8164187487222581e+00 0 0 0
2040 1 2.4838669266405340e+01 -1.3984369609382730e+00 1.1073913800097634e+01 0 0 0
2047 1 1.7467687418950737e+00 2.7136142431911745e+00 9.8458520254535866e+00 0 0 0
2043 1 -1.0431604987779624e+00 2.7299576555912890e+00 1.2480962782795427e+01 0 0 0
2048 1 3.0574150547226759e+00 4.0112228716488323e+00 1.1208187210670683e+01 0 0 0
2055 1 6.9757846621399775e+00 2.7013959691031344e+00 9.6256784157775428e+00 0 0 0
2050 1 5.7719008660659039e+00 1.4031311518023912e+00 1.1127392232036579e+01 0 0 0
2056 1 8.4187626315200106e+00 4.0312017665041697e+00 1.1169234443446587e+01 0 0 0
5 1 1.5958521332215727e+00 -5.4287590208843426e+00 1.6967854249598064e+00 0 0 0
2058 1 1.1181008449660132e+01 1.3053138467271248e+00 1.1079004189176002e+01 0 0 0
2064 1 1.3962208805044469e+01 3.9423064728155297e+00 1.1190963955747304e+01 0 0 0
2063 1 1.2654832511786855e+01 2.5603806579983832e+00 9.7789821833419595e+00 0 0 0
2071 1 1.7883148340475493e+01 2.7499292110315885e+00 9.8328645704891802e+00 0 0 0
2072 1 1.9313417348119867e+01 4.0384114889617182e+00 1.1221486492679157e+01 0 0 0
2074 1 2.2124552792649304e+01 1.4025712669135548e+00 1.1189327285797184e+01 0 0 0
2079 1 2.3478309504009342e+01 2.8688184916560369e+00 9.8985129065293513e+00 0 0 0
2080 1 2.4862002748043679e+01 4.1553953515920412e+00 1.1215216558777605e+01 0 0 0
2082 1 4.2975630978228041e-01 6.8457727317263286e+00 1.1180318566693339e+01 0 0 0
2081 1 -9.8535694570029375e-01 5.5812293069910242e+00 9.8255388657707794e+00 0 0 0
2089 1 4.2726649343359524e+00 5.4643113895341715e+00 9.9453341597579659e+00 0 0 0
2090 1 5.7006760340936351e+00 6.8505560982067122e+00 1.1045879372791273e+01 0 0 0
2097 1 9.8248970742116501e+00 5.2856946913784872e+00 9.7775758688434742e+00 0 0 0
2098 1 1.1256873455128172e+01 6.6978720531684601e+00 1.1086239645984891e+01 0 0 0
2105 1 1.5332253617284334e+01 5.2595134772371921e+00 9.8337309364475587e+00 0 0 0
2106 1 1.6429621757540925e+01 6.7748933487952163e+00 1.1181452754970136e+01 0 0 0
2111 1 1.7859541358861151e+01 8.1022584801763919e+00 9.8384871408534185e+00 0 0 0
2113 1 2.0803930714645077e+01 5.4120821101858096e+00 9.8877393518138010e+00 0 0 0
2114 1 2.2050777702633802e+01 6.8592973381579778e+00 1.1262410317432590e+01 0 0 0
2119 1 2.3445039835846060e+01 8.2100660141188495e+00 9.7447246178727909e+00 0 0 0
2120 1 2.4712828790099536e+01 9.4680091202182961e+00 1.1189047045533709e+01 0 0 0
2087 1 1.5886656434521609e+00 8.2470278926375808e+00 9.9313613170327493e+00 0 0 0
2129 1 4.1934984258733365e+00 1.0738841059378702e+01 9.8129989735276979e+00 0 0 0
2088 1 2.8783399972930539e+00 9.5165905337589098e+00 1.1300405929244169e+01 0 0 0
2095 1 7.1513494728427069e+00 8.0294003437988266e+00 9.6322499109010984e+00 0 0 0
2137 1 9.8005001386361528e+00 1.0844792831035182e+01 9.7308611124323594e+00 0 0 0
2096 1 8.5366901104296087e+00 9.3868014350191320e+00 1.1092025210665051e+01 0 0 0
2103 1 1.2711564410741046e+01 7.9779726220867406e+00 9.7116719745700895e+00 0 0 0
2104 1 1.3800801469015793e+01 9.4877676478457911e+00 1.1131924846838940e+01 0 0 0
2145 1 1.5108671849019160e+01 1.0886327533288906e+01 9.7455074278771061e+00 0 0 0
2112 1 1.9395111162156191e+01 9.4844875363326189e+00 1.1032890885861541e+01 0 0 0
2153 1 2.0778396527130067e+01 1.0978721054140285e+01 9.7402267158139768e+00 0 0 0
2019 1 9.7892441619995392e+00 -2.5867240478841187e+00 1.2395221153576259e+01 0 0 0
2027 1 1.5343402965892821e+01 -2.6697365680735619e+00 1.2424661426465757e+01 0 0 0
2045 1 1.6393507498832787e+00 -1.4566510925875728e-01 1.2438560257446904e+01 0 0 0
2069 1 1.7994115281377219e+01 -2.2960942264351235e-03 1.2425653692618024e+01 0 0 0
2077 1 2.3400507485096135e+01 -4.8493744053273745e-02 1.2495225300339134e+01 0 0 0
2051 1 4.3267608241591251e+00 2.7553090340593616e+00 1.2487248452250654e+01 0 0 0
2085 1 1.6816954814822371e+00 5.4374658761136185e+00 1.2404512750941542e+01 0 0 0
2093 1 7.1291731843882147e+00 5.5346414558062440e+00 1.2421916832637701e+01 0 0 0
2099 1 9.8777151052752057e+00 8.0109154886854945e+00 1.2495195213017949e+01 0 0 0
2109 1 1.7818964082444463e+01 5.3079473140376559e+00 1.2446709210042128e+01 0 0 0
2133 1 7.0720264971308113e+00 1.0747617642543165e+01 1.2459756819673734e+01 0 0 0
2149 1 1.7898075576958139e+01 1.0842877970785704e+01 1.2476549344171046e+01 0 0 0
2115 1 2.0612803725865902e+01 8.1985391325436741e+00 1.2476850499267899e+01 0 0 0
2083 1 -1.0850903751010748e+00 8.0279450746361718e+00 1.2474140203834533e+01 0 0 0
119 1 2.3334845370115669e+01 8.0592097134903042e+00 -1.0242034251340435e+00 0 0 0
63 1 1.2560618485105111e+01 2.6690186830076144e+00 -1.0917153347619042e+00 0 0 0
95 1 7.0416558354755709e+00 7.9938211949916287e+00 -1.0932360382346928e+00 0 0 0
97 1 9.9353227755864264e+00 5.3160478438007237e+00 -1.0543129499138075e+00 0 0 0
3007 1 1.5972169928595203e+00 -2.7286390546976862e+00 1.5255891680677074e+01 0 0 0
3001 1 -1.0076975992826143e+00 -5.3550084696212261e+00 1.5171500071413300e+01 0 0 0
2006 1 2.8982227635354052e+00 -4.1052538527146005e+00 1.3705620811726092e+01 0 0 0
3015 1 7.0769984571782478e+00 -2.6903450157857831e+00 1.5135507591912098e+01 0 0 0
2014 1 8.6027915444007697e+00 -3.9745542332768662e+00 1.3931586849324999e+01 0 0 0
4029 1 1.7909006787440656e+01 -5.3538268502509538e+00 2.3311229938515218e+01 0 0 0
4157 1 2.3422823832853549e+01 1.0723235639583105e+01 2.3223417817030207e+01 0 0 0
2022 1 1.3834690178729950e+01 -4.0660081519196494e+00 1.3717838538824925e+01 0 0 0
3023 1 1.2541664690444424e+01 -2.8499732726151574e+00 1.5217718326668814e+01 0 0 0
3037 1 2.3492453746030272e+01 -5.4022822783673803e+00 1.8039477996740548e+01 0 0 0
2030 1 1.9437994615517219e+01 -4.1708197511832177e+00 1.3968525219870449e+01 0 0 0
3031 1 1.7872354373262965e+01 -2.6958408391777606e+00 1.5261349122418595e+01 0 0 0
2035 1 2.0784156278446702e+01 -2.8898760332982683e+00 1.2507606143927831e+01 0 0 0
153 1 2.0666780476846952e+01 1.0842476699995011e+01 2.6026846653802792e+01 0 0 -1
2038 1 2.4750699841087993e+01 -3.9693059807298545e+00 1.3768092792446627e+01 0 0 0
3039 1 2.3349599402187422e+01 -2.7375473607357574e+00 1.5251959707218200e+01 0 0 0
3029 1 1.7958113899965578e+01 -5.4414525532249343e+00 1.8045199871175555e+01 0 0 0
2004 1 2.8847007411520659e-01 -1.2644534344489120e+00 1.3905655441564868e+01 0 0 0
3041 1 2.6068349907779027e+01 1.1200425531068207e-03 1.5257181538231551e+01 -1 0 0
2046 1 3.0149914067317960e+00 1.2795992804952032e+00 1.3871005834530351e+01 0 0 0
3049 1 4.2954349007467023e+00 -1.5898001142890730e-01 1.5243464196655211e+01 0 0 0
2012 1 5.6570042027624865e+00 -1.3916070963597005e+00 1.3874518728250866e+01 0 0 0
2053 1 7.0744910270852115e+00 -2.0555705229628383e-02 1.2517365564537764e+01 0 0 0
2054 1 8.4581006126884652e+00 1.3346376320731139e+00 1.3934229109491689e+01 0 0 0
3057 1 9.7650533662179768e+00 -4.8087488842530182e-02 1.5238986461672106e+01 0 0 0
2020 1 1.1143314123950789e+01 -1.4032014278879452e+00 1.3791662224002385e+01 0 0 0
2062 1 1.3937108362835925e+01 1.1806259231759755e+00 1.4044002541487702e+01 0 0 0
2061 1 1.2555996868000003e+01 8.7821192849394838e-02 1.2534500135680064e+01 0 0 0
2028 1 1.6664051048317983e+01 -1.3264015279407813e+00 1.3924045690308727e+01 0 0 0
3065 1 1.5280188352869056e+01 -1.0796566186533761e-01 1.5325148230268846e+01 0 0 0
3005 1 1.5208226067350106e+00 -5.5058861967026758e+00 1.7982200506036083e+01 0 0 0
2070 1 1.9349636121330807e+01 1.3751202571585266e+00 1.3904175992463118e+01 0 0 0
2036 1 2.2002504422053079e+01 -1.4172598132649163e+00 1.3811976471588830e+01 0 0 0
3073 1 2.0723510173836683e+01 -4.0072012977510008e-02 1.5206408719843065e+01 0 0 0
3033 1 2.0792089938736961e+01 -5.4744724211234939e+00 1.5305518814815310e+01 0 0 0
2044 1 2.4056299779590043e-01 4.0062779823392747e+00 1.3749029870862985e+01 0 0 0
3047 1 1.6844062792253032e+00 2.6896931054329301e+00 1.5155268580999198e+01 0 0 0
3025 1 1.5218520888996830e+01 -5.4871149216163531e+00 1.5014102098010099e+01 0 0 0
2052 1 5.5996091344075065e+00 4.1075401391110749e+00 1.3729188551621833e+01 0 0 0
3055 1 6.8857921100763058e+00 2.7802122831827063e+00 1.5064513826345653e+01 0 0 0