LAMMPS data file via write_data, version 30 Jul 2016, timestep = 50000

5000 atoms
1 atom types

-1.1037168688014471e+00 2.6103716868801385e+01 xlo xhi
-5.5185843440072304e+00 1.3051858434400725e+02 ylo yhi
-1.1037168688014471e+00 2.6103716868801385e+01 zlo zhi

Masses

1 28.0855

Atoms # atomic

2 1 4.3131036129018835e-01 -4.1039911757930536e+00 3.0144945291022640e-01 0 0 0
3 1 -9.1579871967290971e-01 -2.6649212478440831e+00 1.8855901159425490e+00 0 0 0
7 1 1.6676248988192630e+00 -2.8441860858724364e+00 -1.0883433167388865e+00 0 0 0
11 1 4.3794905747057609e+00 -2.7449317368769250e+00 1.6338188708562829e+00 0 0 0
10 1 5.8754191396655067e+00 -4.0080392276797836e+00 1.6073596448331609e-01 0 0 0
1005 1 1.7050088461234501e+00 -5.3836778968201031e+00 7.0813988272359865e+00 0 0 0
19 1 9.9282630084701253e+00 -2.7077215506235399e+00 1.7206445255718827e+00 0 0 0
2021 1 1.2485548569868305e+01 -5.4876109880087824e+00 1.2349727155405308e+01 0 0 0
18 1 1.1174026253502102e+01 -4.1777276887639045e+00 3.2203899219994370e-01 0 0 0
23 1 1.2566120689940741e+01 -2.8126462490395574e+00 -9.9592305960770144e-01 0 0 0
27 1 1.5177011440776973e+01 -2.8710439424887175e+00 1.6632437286070294e+00 0 0 0
26 1 1.6708111333984586e+01 -3.9420950901137886e+00 2.0230175973526637e-01 0 0 0
1009 1 4.4118792005482845e+00 -5.5029755690052014e+00 4.1972663747032879e+00 0 0 0
34 1 2.2057826091848106e+01 -3.9443294692920725e+00 2.6877665418814201e-01 0 0 0
35 1 2.0681526215403579e+01 -2.6335536951865470e+00 1.7614570169563690e+00 0 0 0
39 1 2.3447591874061242e+01 -2.6896344845164206e+00 -1.0606557989147898e+00 0 0 0
41 1 2.6102413452096243e+01 6.2484640273648973e-02 -1.0471654050108290e+00 -1 0 0
45 1 1.6525776149164821e+00 4.2057755084141071e-02 1.5287327676668510e+00 0 0 0
49 1 4.3720115760062592e+00 -5.3078184556062613e-02 -1.0973836024570938e+00 0 0 0
8 1 2.9589527419414439e+00 -1.3455132734486919e+00 1.7418464835772041e-01 0 0 0
53 1 7.1130104198106938e+00 -3.4310608612100835e-02 1.6908342885309195e+00 0 0 0
50 1 5.7729767693957665e+00 1.3444361889191112e+00 2.0181419663167333e-01 0 0 0
16 1 8.4768823310232317e+00 -1.4196583516955348e+00 2.7669923328882745e-01 0 0 0
57 1 9.8371589124914482e+00 -4.0419939932276550e-02 -1.0970655260372739e+00 0 0 0
58 1 1.1341973036187916e+01 1.2655892110103135e+00 1.7744112354478794e-01 0 0 0
24 1 1.3928729681673810e+01 -1.5191013196489762e+00 2.2748961235424886e-01 0 0 0
61 1 1.2502076608871906e+01 -2.9170521272525951e-01 1.6551459632798420e+00 0 0 0
66 1 1.6601191768024773e+01 1.2302561122369207e+00 2.0696519110692185e-01 0 0 0
65 1 1.5236248768878507e+01 -7.5511543152429250e-02 -1.0013454048703518e+00 0 0 0
69 1 1.7934075508997456e+01 -3.8207136805641466e-02 1.4641252188540410e+00 0 0 0
32 1 1.9404343573426537e+01 -1.4633991146804257e+00 1.4442945204456031e-01 0 0 0
1001 1 -1.0238204572745515e+00 -5.4807926000829639e+00 4.4668249857973459e+00 0 0 0
77 1 2.3420538567445639e+01 -1.6300666608515882e-02 1.7068111168726929e+00 0 0 0
40 1 2.4861769838122584e+01 -1.3975335142133254e+00 4.5759582563192347e-01 0 0 0
42 1 2.6112411381057693e-01 1.4709721473399147e+00 2.2979265197368895e-01 0 0 0
37 1 2.3632304042834395e+01 -5.3951468088831689e+00 1.5710498134254784e+00 0 0 0
51 1 4.4080004129576427e+00 2.6960615199502489e+00 1.5391525091446727e+00 0 0 0
48 1 3.0026426508796691e+00 4.0478208344630282e+00 1.9541307834746088e-01 0 0 0
56 1 8.6363717464712675e+00 3.8715133478702128e+00 3.7444427559406090e-01 0 0 0
59 1 1.0023556148728900e+01 2.5195553484964415e+00 1.7204873000265459e+00 0 0 0
64 1 1.3840336494959141e+01 4.0331230650235472e+00 1.8919917216490428e-01 0 0 0
67 1 1.5197109882235468e+01 2.5103875755306686e+00 1.5514346780031880e+00 0 0 0
72 1 1.9398640784832921e+01 3.9773901339818787e+00 3.5749452953883720e-01 0 0 0
71 1 1.7965780233851490e+01 2.7684427319782783e+00 -1.0241038065700405e+00 0 0 0
74 1 2.2027975214158090e+01 1.1924923800855733e+00 3.4844938114678303e-01 0 0 0
75 1 2.0780241074980800e+01 2.6830641160650837e+00 1.6892127352459132e+00 0 0 0
79 1 2.3348838046514690e+01 2.6797712547952988e+00 -9.9519700599806815e-01 0 0 0
80 1 2.4776382336211348e+01 4.0441683358439544e+00 2.2992139815264617e-01 0 0 0
43 1 2.6076724254549571e+01 2.6069813669117976e+00 1.6490107848293611e+00 -1 0 0
82 1 3.3818484786598729e-01 6.8824568087845348e+00 3.3525637852916268e-01 0 0 0
85 1 1.6015794887683317e+00 5.4972640483002184e+00 1.5639061659570719e+00 0 0 0
2029 1 1.8139202937680295e+01 -5.5072720453987074e+00 1.2469173159190502e+01 0 0 0
33 1 2.0742734646295318e+01 -5.5081853221512347e+00 -1.0012814300755883e+00 0 0 0
91 1 4.2622371094720455e+00 8.1029404860107377e+00 1.6645469543149900e+00 0 0 0
90 1 5.6178253961302644e+00 6.7281834967835472e+00 2.2644048017722015e-01 0 0 0
93 1 6.9865505706856146e+00 5.3731115134539049e+00 1.6531054838241184e+00 0 0 0
98 1 1.1000311420217841e+01 6.7695647126222331e+00 4.6756057490831565e-01 0 0 0
101 1 1.2617764999755300e+01 5.3713686232690891e+00 1.6938332183708460e+00 0 0 0
106 1 1.6567249899351175e+01 6.8254387857853525e+00 2.3863439849713899e-01 0 0 0
29 1 1.7974322271067287e+01 -5.3920794063765243e+00 1.6734957073550050e+00 0 0 0
109 1 1.7979567486472536e+01 5.4115847049480683e+00 1.6238297866036078e+00 0 0 0
114 1 2.2050029877214978e+01 6.6360046554547560e+00 2.5206854099762471e-01 0 0 0
115 1 2.0568443057896310e+01 8.0452369096314875e+00 1.4304244394656163e+00 0 0 0
25 1 1.5309768728466540e+01 -5.4514060508593900e+00 -9.1872769127975562e-01 0 0 0
117 1 2.3421185596124108e+01 5.4094870679490841e+00 1.6550467547251360e+00 0 0 0
81 1 2.6083840698194162e+01 5.5680141469628461e+00 -1.0428659622210954e+00 -1 0 0
125 1 1.5929306424860759e+00 1.0801892064280366e+01 1.5974852679990352e+00 0 0 0
88 1 3.0128531894332515e+00 9.5612464639704999e+00 2.4118768659355541e-01 0 0 0
13 1 7.3014978587448542e+00 -5.4208290018771947e+00 1.5639571408173822e+00 0 0 0
133 1 6.9696972680216973e+00 1.0677587627971826e+01 1.7584412671284171e+00 0 0 0
99 1 9.6175601709322702e+00 8.3109528333952127e+00 1.6642577976373172e+00 0 0 0
96 1 8.3345410777111173e+00 9.4863165072265332e+00 1.3159624439273562e-01 0 0 0
9 1 4.4717801077066435e+00 -5.4275029621179840e+00 -1.0167643191666997e+00 0 0 0
103 1 1.2341665569670237e+01 7.9806650565507908e+00 -1.0969496510374876e+00 0 0 0
104 1 1.3665867075272171e+01 9.4639516840274354e+00 1.3205579271816945e-01 0 0 0
141 1 1.2505260358043959e+01 1.0745137300967730e+01 1.7011144740483544e+00 0 0 0
107 1 1.5124067224463126e+01 8.1273927014339371e+00 1.4904368599681861e+00 0 0 0
145 1 1.5111627551283235e+01 1.0864442139791693e+01 -1.0498211454819859e+00 0 0 0
149 1 1.7725296308764591e+01 1.0700005634161954e+01 1.5337392076049621e+00 0 0 0
112 1 1.9190299055828284e+01 9.5386485106642844e+00 1.8009791607537387e-01 0 0 0
157 1 2.3214978443934029e+01 1.0858692149599779e+01 1.5265818462702965e+00 0 0 0
120 1 2.4732847580575495e+01 9.4976036692998242e+00 1.5400826819437408e-01 0 0 0
83 1 2.5968135926851755e+01 8.2680151680883167e+00 1.5753574133973445e+00 -1 0 0
1 1 -9.7064925120585888e-01 -5.3494819899582353e+00 -1.0627495222449874e+00 0 0 0
1007 1 1.5813723940296918e+00 -2.6704501560211162e+00 4.1936990654203194e+00 0 0 0
6 1 2.9423862947910666e+00 -4.0754351651974456e+00 2.9099938293739198e+00 0 0 0
1015 1 6.9811213554161826e+00 -2.7734554442130701e+00 4.3256812579009134e+00 0 0 0
1010 1 5.5964110047998821e+00 -4.1381641809573750e+00 5.7438406211001487e+00 0 0 0
14 1 8.4513351085068429e+00 -3.9896669704221557e+00 2.9533662974007369e+00 0 0 0
2121 1 -1.0834886096986018e+00 1.0809362724030839e+01 9.7841934723961721e+00 0 0 0
1018 1 1.1070447023784554e+01 -4.1391586191513552e+00 5.6223894919517559e+00 0 0 0
22 1 1.3848044971668335e+01 -4.1684788195204190e+00 3.0344002196801116e+00 0 0 0
1023 1 1.2574052524864500e+01 -2.8302806059888614e+00 4.4264505280875364e+00 0 0 0
1031 1 1.8031574382730891e+01 -2.7174331677138928e+00 4.4111891831598067e+00 0 0 0
30 1 1.9401038651247887e+01 -4.1394097780394024e+00 3.0269117046194163e+00 0 0 0
1033 1 2.0770696957697734e+01 -5.3622975035644025e+00 4.4990240994738508e+00 0 0 0
38 1 2.4913632263584947e+01 -3.9742459793786580e+00 3.1242000215129284e+00 0 0 0
1039 1 2.3402630384637348e+01 -2.5734469341600898e+00 4.4408410676871135e+00 0 0 0
4 1 3.5986095509741661e-01 -1.1428521394781335e+00 2.9715715141967660e+00 0 0 0
1042 1 3.0184954064742647e-01 1.4933470117134306e+00 5.8118099945184882e+00 0 0 0
1049 1 4.2222834015886521e+00 1.6892320640976517e-02 4.3182794122329726e+00 0 0 0
1008 1 2.9600160672198368e+00 -1.4925769661036759e+00 5.7783366308905206e+00 0 0 0
12 1 5.6145136906409148e+00 -1.4024003207233759e+00 3.0352938649623602e+00 0 0 0
54 1 8.4988940808561360e+00 1.3698151477457288e+00 2.9822426377682687e+00 0 0 0
1057 1 9.7815398400301063e+00 -1.0636772243734231e-01 4.4029047935769077e+00 0 0 0
1016 1 8.3671379549886122e+00 -1.4027220084094736e+00 5.6504930545451808e+00 0 0 0
20 1 1.1248710523000259e+01 -1.5250978025616546e+00 3.1434116186556711e+00 0 0 0
1058 1 1.1053086896209205e+01 1.4295001117077053e+00 5.6549972856741544e+00 0 0 0
1024 1 1.3882082255458505e+01 -1.3241326502792374e+00 5.6896056703487341e+00 0 0 0
1065 1 1.5155829247531058e+01 2.3324095950425765e-02 4.3179588444032095e+00 0 0 0
28 1 1.6494479143850512e+01 -1.4171666036822161e+00 2.9597077721468898e+00 0 0 0
1073 1 2.0525540078158841e+01 1.4105785904096924e-01 4.4065669925479476e+00 0 0 0
36 1 2.1897127343725533e+01 -1.1960718408943263e+00 3.1352335856282432e+00 0 0 0
1041 1 -1.0904410174720169e+00 8.5596603649731193e-02 4.3134004136321620e+00 0 0 0
78 1 2.4807194773349959e+01 1.3507188123547522e+00 3.1017505591874288e+00 0 0 0
44 1 3.1812692075693683e-01 4.0702624884631451e+00 3.0068960313790574e+00 0 0 0
1047 1 1.5665668059813624e+00 2.7364875767256001e+00 4.3970095238902642e+00 0 0 0
46 1 3.0211880226999104e+00 1.3186326796815522e+00 2.8707654708657255e+00 0 0 0
1048 1 3.2069348154555919e+00 3.9792184249144325e+00 5.6271198338995259e+00 0 0 0
52 1 5.8249679956976887e+00 3.9076939246636342e+00 3.0148447887706658e+00 0 0 0
1055 1 7.1799209893262601e+00 2.6943447919468624e+00 4.4227027300900295e+00 0 0 0
1056 1 8.4111310718746761e+00 3.9505771797910767e+00 5.8014901411207145e+00 0 0 0
60 1 1.1189477577596683e+01 4.1119172622588422e+00 3.0610777803426901e+00 0 0 0
62 1 1.3798492129403082e+01 1.3464171897911694e+00 2.8401193889210830e+00 0 0 0
1063 1 1.2576091508115377e+01 2.7724921689437725e+00 4.2749454219767165e+00 0 0 0
68 1 1.6551974334615608e+01 4.0037722556436393e+00 2.8605049970161485e+00 0 0 0
1071 1 1.7890268460448802e+01 2.7796863679736097e+00 4.3150745520549343e+00 0 0 0
70 1 1.9231481355365116e+01 1.3572121543786198e+00 2.9543421640868486e+00 0 0 0
76 1 2.2133683091501229e+01 4.0694103219612554e+00 3.0721013665891923e+00 0 0 0
1079 1 2.3412521133117561e+01 2.7060296642223620e+00 4.4136263857048785e+00 0 0 0
1087 1 1.6739712271992466e+00 8.1010685085467493e+00 4.3807860758825958e+00 0 0 0
1089 1 4.4207054247114161e+00 5.3526033232909702e+00 4.1791579017077263e+00 0 0 0
86 1 3.0301723614846243e+00 6.7388081010973915e+00 3.0099266952314441e+00 0 0 0
94 1 8.3953873922921929e+00 6.7936956029911277e+00 2.9784397848119117e+00 0 0 0
1097 1 9.7453831197981309e+00 5.4233820084694866e+00 4.3658238138855134e+00 0 0 0
1103 1 1.2618425865602354e+01 7.9506721973966501e+00 4.3074910854511748e+00 0 0 0
102 1 1.3976491330998888e+01 6.6787718671274421e+00 2.8895724893502259e+00 0 0 0
1105 1 1.5304197444081893e+01 5.3368717433245010e+00 4.2626929492634904e+00 0 0 0
110 1 1.9365330963689331e+01 6.7168764284279066e+00 3.0020066280799602e+00 0 0 0
1113 1 2.0671284429002981e+01 5.4010612861948326e+00 4.3796251183955750e+00 0 0 0
118 1 2.4804652087501601e+01 6.8020111987811038e+00 3.0157456495726485e+00 0 0 0
1119 1 2.3306704371849701e+01 8.1089074708148736e+00 4.3287505739516785e+00 0 0 0
1081 1 2.6099062986271832e+01 5.3395257263733864e+00 4.3462325084642099e+00 -1 0 0
84 1 2.9481559925448597e-01 9.4753650721093887e+00 2.9976031706724897e+00 0 0 0
1129 1 4.3307671147732503e+00 1.0898010322101799e+01 4.5724363097991372e+00 0 0 0
1095 1 6.9320699850096128e+00 8.0257250641103592e+00 4.3010957083405215e+00 0 0 0
92 1 5.5304533365249551e+00 9.4115683980597087e+00 3.0740466927526171e+00 0 0 0
1137 1 9.7119451005423105e+00 1.0734421913425482e+01 4.5234250876629556e+00 0 0 0
100 1 1.1136953224458583e+01 9.3579345860233580e+00 3.1096638263442991e+00 0 0 0
1145 1 1.5160857072410201e+01 1.0653374094966752e+01 4.3692555801857802e+00 0 0 0
108 1 1.6423234573689381e+01 9.2848864542404055e+00 2.9310582512360961e+00 0 0 0
1111 1 1.7984130388920246e+01 8.0462483549991042e+00 4.4727339880035384e+00 0 0 0
1153 1 2.0520443667745734e+01 1.0815730162592963e+01 4.4745587520571535e+00 0 0 0
116 1 2.1765720466182220e+01 9.4462478957991944e+00 2.8947868225361382e+00 0 0 0
1120 1 2.4605870394965162e+01 9.4753739433683268e+00 5.6104513069181303e+00 0 0 0
1121 1 2.6065989116732641e+01 1.0766702507279218e+01 4.3279193925624515e+00 -1 0 0
1002 1 4.0504934441247448e-01 -4.0290242563062915e+00 5.7454569155109532e+00 0 0 0
1011 1 4.3827447482523816e+00 -2.7303898642973006e+00 7.2150563958734519e+00 0 0 0
1006 1 2.9767150085819272e+00 -4.1668831709845202e+00 8.4412698080399373e+00 0 0 0
1013 1 7.0911932745372148e+00 -5.4908694183286801e+00 7.0332436551006570e+00 0 0 0
1019 1 9.6305973412075865e+00 -2.7348165172046808e+00 7.0463655942558532e+00 0 0 0
1014 1 8.4045146799488677e+00 -4.0543952047560552e+00 8.3977386134250498e+00 0 0 0
1021 1 1.2506073772042129e+01 -5.4904475597961309e+00 6.9136539112992565e+00 0 0 0
1022 1 1.3896839606073915e+01 -4.1799091453739381e+00 8.2676017421350636e+00 0 0 0
1027 1 1.5142873558506235e+01 -2.7836193595783256e+00 7.1269013786560746e+00 0 0 0
1026 1 1.6516240023825191e+01 -4.1924225502515631e+00 5.7919185704682183e+00 0 0 0
1030 1 1.9427221190869236e+01 -4.1104821510851508e+00 8.3691198427934204e+00 0 0 0
1034 1 2.2221764857837755e+01 -4.0865381136484826e+00 5.7703289020782069e+00 0 0 0
1035 1 2.0696260891652404e+01 -2.7899011172879313e+00 6.8597412596107619e+00 0 0 0
1038 1 2.4805491910645237e+01 -4.1646175853679557e+00 8.4931284701040681e+00 0 0 0
1003 1 -1.0158276352417097e+00 -2.6469362513476815e+00 7.1607150084974673e+00 0 0 0
1045 1 1.7030885429231002e+00 -2.1082068699553553e-02 7.1198820904731281e+00 0 0 0
1004 1 4.0287505175993382e-01 -1.3570344708709519e+00 8.4600098084329947e+00 0 0 0
1053 1 7.0340858200355862e+00 3.2495809536842425e-02 7.0247828320444938e+00 0 0 0
1012 1 5.8552653072363841e+00 -1.3316582379321538e+00 8.5214741000084171e+00 0 0 0
1020 1 1.1130587702835133e+01 -1.4813736135083690e+00 8.4630175983344706e+00 0 0 0
1061 1 1.2387573816594537e+01 -1.1251585878072609e-01 7.1245842589049548e+00 0 0 0
1028 1 1.6533914506716687e+01 -1.4451163595640513e+00 8.5007365743361998e+00 0 0 0
1069 1 1.7904243908606041e+01 -4.7562837101975015e-02 7.0051751427550295e+00 0 0 0
1032 1 1.9241172433375834e+01 -1.2756152103133069e+00 5.7667543854136554e+00 0 0 0
1074 1 2.1831786268597764e+01 1.4957316816210124e+00 5.7229689942502002e+00 0 0 0
1036 1 2.1973293186670841e+01 -1.3193836473112808e+00 8.3282601638466129e+00 0 0 0
1077 1 2.3286968148687283e+01 1.6452608104220653e-01 7.0419141273107728e+00 0 0 0
1040 1 2.4725949584380526e+01 -1.2905202408576171e+00 5.8069209886264783e+00 0 0 0
1044 1 2.9296041861698269e-01 4.0738084207948342e+00 8.4364503699044384e+00 0 0 0
1051 1 4.5322818640047151e+00 2.7072829122994340e+00 7.1475189108562880e+00 0 0 0
1046 1 3.0759197712243869e+00 1.3817852191504236e+00 8.4597982442986890e+00 0 0 0
1050 1 5.7233465768728093e+00 1.3228299602979190e+00 5.6785176952114256e+00 0 0 0
1052 1 5.7352541835750381e+00 4.2922190597573051e+00 8.4867309234861246e+00 0 0 0
1059 1 9.8076600021819473e+00 2.6919924595670097e+00 7.2035136904051047e+00 0 0 0
1054 1 8.4766419200381176e+00 1.2518916099141344e+00 8.5381932329358232e+00 0 0 0
1060 1 1.1224214285336675e+01 3.9205041588586789e+00 8.4541849472976640e+00 0 0 0
1064 1 1.3903432345122287e+01 4.0807516858144703e+00 5.6728256512072575e+00 0 0 0
1062 1 1.3795102194657982e+01 1.2311342970504464e+00 8.3667611042262848e+00 0 0 0
1066 1 1.6535261849024348e+01 1.4311458983032770e+00 5.7016282180062081e+00 0 0 0
1067 1 1.5142200630857513e+01 2.7112638429972367e+00 7.0084478351160584e+00 0 0 0
1068 1 1.6548967359204198e+01 3.9733072986178262e+00 8.4093818351613123e+00 0 0 0
1072 1 1.9267534535331837e+01 3.9970468743226428e+00 5.6837835887865173e+00 0 0 0
1070 1 1.9328722162034591e+01 1.3620704899652827e+00 8.5914263098390897e+00 0 0 0
1075 1 2.0492134430674110e+01 2.7593686956340258e+00 7.1661175346761921e+00 0 0 0
1076 1 2.2070432342124967e+01 4.0539897138324781e+00 8.5794711293942747e+00 0 0 0
1080 1 2.4734249706209791e+01 4.0824499606298881e+00 5.8549771905764922e+00 0 0 0
1078 1 2.4777281050833512e+01 1.4510208910022053e+00 8.4692109539100464e+00 0 0 0
1043 1 -1.0495692373334293e+00 2.8071602008364973e+00 7.2132661684188157e+00 0 0 0
1082 1 3.7410836716316626e-01 6.6533305704662427e+00 5.7066495315359758e+00 0 0 0
1085 1 1.8089505900098057e+00 5.3759362777201609e+00 7.1782739737993682e+00 0 0 0
1091 1 4.2822300321636497e+00 8.1601907287143405e+00 7.1051703289536077e+00 0 0 0
1086 1 3.0481036266031385e+00 6.8361599605392609e+00 8.5494230740503081e+00 0 0 0
1090 1 5.5303697593564172e+00 6.7408737113994013e+00 5.7498244091431374e+00 0 0 0
1093 1 6.9234266030743647e+00 5.5399269623135847e+00 7.0785897131467612e+00 0 0 0
1099 1 9.8257076437707678e+00 8.0315343534332406e+00 7.1326196417110719e+00 0 0 0
1094 1 8.5226817282121061e+00 6.6187302238762573e+00 8.4302523690882651e+00 0 0 0
1098 1 1.1114262672814775e+01 6.7649789228500667e+00 5.5122844385206635e+00 0 0 0
1101 1 1.2492249832438283e+01 5.2773223707365737e+00 6.9709881829302844e+00 0 0 0
1102 1 1.3855259302185923e+01 6.5590119500136845e+00 8.3506176497695392e+00 0 0 0
1106 1 1.6636139414485132e+01 6.6550964844025886e+00 5.6603251602896076e+00 0 0 0
1109 1 1.8007977463965641e+01 5.4155505910761255e+00 7.0983101983892514e+00 0 0 0
1110 1 1.9383361063136096e+01 6.7301537706013050e+00 8.4889847026512530e+00 0 0 0
1114 1 2.1971033197753343e+01 6.8194413471397626e+00 5.8270583695231926e+00 0 0 0
1117 1 2.3297595569612646e+01 5.4674899809084696e+00 7.1188669321003566e+00 0 0 0
1118 1 2.4681878034214197e+01 6.7573974451076531e+00 8.4395977995645222e+00 0 0 0
1083 1 2.6090685894139192e+01 8.0010109314175057e+00 6.9210244871151545e+00 -1 0 0
1125 1 1.6032806469888943e+00 1.0782592822238758e+01 7.0181936006099317e+00 0 0 0
1084 1 2.2832260043727742e-01 9.4795539676964733e+00 8.3991125278901162e+00 0 0 0
1088 1 2.9235641776585672e+00 9.4600071826567298e+00 5.7114954701131504e+00 0 0 0
1133 1 7.0772649865212900e+00 1.0773333330105556e+01 7.1263421973886780e+00 0 0 0
1092 1 5.5705889588341071e+00 9.5091000172941573e+00 8.5237949419278447e+00 0 0 0
1096 1 8.3513834593841914e+00 9.1867425814377359e+00 5.8164576318781709e+00 0 0 0
1141 1 1.2367765484821566e+01 1.0736201516746583e+01 7.1087750435869941e+00 0 0 0
1100 1 1.1038940038253314e+01 9.3712319574688348e+00 8.5692132530824079e+00 0 0 0
1104 1 1.3827565078571574e+01 9.3134254166530361e+00 5.8907442427100181e+00 0 0 0
1107 1 1.5294166522858420e+01 7.8810240222364651e+00 7.0204867109981803e+00 0 0 0
1108 1 1.6428240025299946e+01 9.3706633769914802e+00 8.4566316665129619e+00 0 0 0
1149 1 1.7743748108106384e+01 1.0790101569091439e+01 7.1686169555474279e+00 0 0 0
1112 1 1.9198318075002781e+01 9.4405479139539157e+00 5.9220624466800089e+00 0 0 0
1115 1 2.0692616421798093e+01 8.1570639825643543e+00 7.1561571848021082e+00 0 0 0
1116 1 2.2004196569447956e+01 9.4988060173381079e+00 8.4574046329306505e+00 0 0 0
1157 1 2.3286487424415853e+01 1.0789854807815754e+01 7.0049665654899815e+00 0 0 0
2007 1 1.6401649934520592e+00 -2.8451575637537627e+00 9.7677747082498012e+00 0 0 0
2002 1 2.8901240099895814e-01 -4.1404685883468835e+00 1.1085806939542381e+01 0 0 0
2120 1 2.4782979345448371e+01 9.4896164032957238e+00 1.1154334775731849e+01 0 0 0
2003 1 -8.8650617670585530e-01 -2.6810624333691750e+00 1.2499082675463772e+01 0 0 0
5 1 1.5873313334721442e+00 -5.4613751153189014e+00 1.6944380036805977e+00 0 0 0
2015 1 7.1304449656764337e+00 -2.7832149105867305e+00 9.8687320722125786e+00 0 0 0
2010 1 5.6115098761406665e+00 -4.1513298736906705e+00 1.1233318753139425e+01 0 0 0
2017 1 9.7602582618193505e+00 -5.4611998149848882e+00 9.5731872656728108e+00 0 0 0
2023 1 1.2575953529618115e+01 -2.7988939009657483e+00 9.7514646855116691e+00 0 0 0
2018 1 1.1115720193276092e+01 -4.1286302307885663e+00 1.1088077559821153e+01 0 0 0
2025 1 1.5269903327548356e+01 -5.4912214364979866e+00 9.7137393976598716e+00 0 0 0
2026 1 1.6726092887449486e+01 -4.1530682935533934e+00 1.1136998255411674e+01 0 0 0
2031 1 1.7999427851400561e+01 -2.7699493923074878e+00 9.7539079788064225e+00 0 0 0
2034 1 2.2090412975706801e+01 -4.2909951654630376e+00 1.1151785166111114e+01 0 0 0
2039 1 2.3350604525845061e+01 -2.7670436960527742e+00 9.6915005080641112e+00 0 0 0
2042 1 4.0311282846409868e-01 1.3339767041010728e+00 1.1117793644073075e+01 0 0 0
2041 1 -1.0329151698022312e+00 2.0323071129093807e-02 9.8295390883711633e+00 0 0 0
2049 1 4.4230289690915301e+00 4.0862214593986354e-02 9.9188801395885484e+00 0 0 0
2008 1 2.9761880767210993e+00 -1.5247198247167457e+00 1.1053806743024630e+01 0 0 0
2057 1 9.9210246980034409e+00 4.0343065995815711e-04 9.7554583065274709e+00 0 0 0
2016 1 8.4957742836304551e+00 -1.3363902472843452e+00 1.1082396183497520e+01 0 0 0
2024 1 1.3892229837358727e+01 -1.4783318087409287e+00 1.1127694517660821e+01 0 0 0
2065 1 1.5185343615529987e+01 -4.9237306626165885e-02 9.8025329080431352e+00 0 0 0
2066 1 1.6550114577782622e+01 1.2915347122181020e+00 1.1076760852074937e+01 0 0 0
2032 1 1.9455664374809526e+01 -1.4907392918975788e+00 1.1125567518750428e+01 0 0 0
2073 1 2.0777276506628855e+01 -3.9801255549358268e-02 9.8128440855649046e+00 0 0 0
2040 1 2.4775190331855100e+01 -1.3627990183873713e+00 1.1226935784344368e+01 0 0 0
2047 1 1.7623222980331408e+00 2.7199414343105386e+00 9.8321277950809005e+00 0 0 0
2043 1 -9.6882598468280490e-01 2.7142348496801545e+00 1.2475708347022231e+01 0 0 0
2048 1 3.0272734062179740e+00 4.0789424250653550e+00 1.1252637787876809e+01 0 0 0
2055 1 7.0920843428206304e+00 2.6846571188345525e+00 9.6591508704339990e+00 0 0 0
2050 1 5.8157581076914093e+00 1.4746873552092696e+00 1.1085782666643755e+01 0 0 0
2056 1 8.4480775022317012e+00 3.9337267494475734e+00 1.1192081911494656e+01 0 0 0
2153 1 2.0722364888185083e+01 1.0943959857554853e+01 9.7611444496848119e+00 0 0 0
2058 1 1.1212453803599352e+01 1.3455522339436394e+00 1.1165528174216760e+01 0 0 0
2064 1 1.4050776755099749e+01 3.8996981397804418e+00 1.1196957736014522e+01 0 0 0
2063 1 1.2598344363448147e+01 2.5951223859622452e+00 9.7966674590764722e+00 0 0 0
2071 1 1.7926500085861306e+01 2.7248205126039813e+00 9.9148445561352698e+00 0 0 0
2072 1 1.9318478373535381e+01 3.9864913720122908e+00 1.1294902166089965e+01 0 0 0
2074 1 2.2169901979493087e+01 1.4813310325526559e+00 1.1244574724759177e+01 0 0 0
2079 1 2.3515925825626404e+01 2.7724678782977388e+00 9.8250268178535709e+00 0 0 0
2080 1 2.4872340157367308e+01 4.0901905567022920e+00 1.1219357460315541e+01 0 0 0
2082 1 3.0932903062032036e-01 6.8021119691009044e+00 1.1121989253349447e+01 0 0 0
2081 1 -1.0765696945406968e+00 5.4914347277536182e+00 9.6880489587043428e+00 0 0 0
2089 1 4.3166105469909777e+00 5.4941019885513933e+00 9.9712249944722338e+00 0 0 0
2090 1 5.6424047917905220e+00 6.8561317940030850e+00 1.1141200764515549e+01 0 0 0
2097 1 9.8298516284042972e+00 5.2476014659455554e+00 9.8237234851435211e+00 0 0 0
2098 1 1.1287841161330636e+01 6.6456920846929455e+00 1.1092133144693985e+01 0 0 0
2105 1 1.5320541224334258e+01 5.2762546625797579e+00 9.8093045121825693e+00 0 0 0
2106 1 1.6366466220508777e+01 6.7541161012818911e+00 1.1223162512022833e+01 0 0 0
2111 1 1.7847781086257914e+01 8.0541061171437853e+00 9.7748053228033100e+00 0 0 0
2113 1 2.0706171046885224e+01 5.4174491565062182e+00 9.8950697342838136e+00 0 0 0
2114 1 2.1999838506684064e+01 6.8958446666856830e+00 1.1223597300979932e+01 0 0 0
2119 1 2.3352448230034675e+01 8.2356604322004028e+00 9.7970541899544710e+00 0 0 0
2112 1 1.9292943632413778e+01 9.5145640625172394e+00 1.1090866736752455e+01 0 0 0
2087 1 1.6134984660860034e+00 8.1681561328306653e+00 9.8362100391584804e+00 0 0 0
2129 1 4.2106024739571755e+00 1.0889334468907618e+01 9.8743789895508112e+00 0 0 0
2088 1 2.9566164557791370e+00 9.5048039711787951e+00 1.1372243245135989e+01 0 0 0
2095 1 7.0648738227945351e+00 8.0264191118055876e+00 9.6530676329908331e+00 0 0 0
2137 1 9.7074393977103881e+00 1.0879746279320074e+01 9.7951442943943992e+00 0 0 0
2096 1 8.4219005063259136e+00 9.4342926433951568e+00 1.1152433692515281e+01 0 0 0
2103 1 1.2612837834307644e+01 7.9923691370260013e+00 9.7580838916213999e+00 0 0 0
2104 1 1.3856547325608705e+01 9.4141026101746643e+00 1.1191319653164712e+01 0 0 0
2145 1 1.5058893066069263e+01 1.0860244314957521e+01 9.7938968012452641e+00 0 0 0
2019 1 9.8427173068749241e+00 -2.6590988440863277e+00 1.2386818147771573e+01 0 0 0
2035 1 2.0722019484601237e+01 -2.8313788646789191e+00 1.2458859916768086e+01 0 0 0
2045 1 1.6339481040589345e+00 -2.1209580440012912e-01 1.2471621428090163e+01 0 0 0
2053 1 7.0513068897427926e+00 -6.4722542447821024e-02 1.2479636003106020e+01 0 0 0
2061 1 1.2596179200489743e+01 1.0584353108082424e-02 1.2481998719674701e+01 0 0 0
2069 1 1.7941976575387393e+01 -5.3111283295053741e-02 1.2455765655038544e+01 0 0 0
2051 1 4.3627548203749971e+00 2.7695616433392911e+00 1.2456073532248542e+01 0 0 0
2093 1 7.1597040270025811e+00 5.5057789674178794e+00 1.2489087414432419e+01 0 0 0
2099 1 9.9433600890651945e+00 8.0063153365515927e+00 1.2476295865093693e+01 0 0 0
2101 1 1.2519475504081395e+01 5.2624507283212356e+00 1.2487438344792277e+01 0 0 0
2109 1 1.7805933980198120e+01 5.3448719376685547e+00 1.2461152699624870e+01 0 0 0
2149 1 1.7935564536889924e+01 1.0901859100857417e+01 1.2445835483967018e+01 0 0 0
2157 1 2.3291191245985861e+01 1.0831282209866524e+01 1.2498861425860142e+01 0 0 0
97 1 9.9241773795248669e+00 5.2760094925596075e+00 -1.0073099261139689e+00 0 0 0
119 1 2.3304880232542896e+01 8.0482999172145675e+00 -1.0688319477152781e+00 0 0 0
3007 1 1.5855670480820490e+00 -2.7397374812816064e+00 1.5296296144148075e+01 0 0 0
3001 1 -1.0324015883274773e+00 -5.4288086097312291e+00 1.5127139539001284e+01 0 0 0
2006 1 2.8334451117485262e+00 -4.1411507360954447e+00 1.3817284375341890e+01 0 0 0
3015 1 7.0996008334504284e+00 -2.7112704768060603e+00 1.5115318153937885e+01 0 0 0
2014 1 8.5446229983582498e+00 -3.9718014415137843e+00 1.3864656415864090e+01 0 0 0
4029 1 1.7954737592997756e+01 -5.3604889684331170e+00 2.3300958782471699e+01 0 0 0
4157 1 2.3318420490827126e+01 1.0630643648348265e+01 2.3254854143463845e+01 0 0 0
2022 1 1.3736423615684096e+01 -4.1252648993959200e+00 1.3725202392561860e+01 0 0 0
3023 1 1.2447082293656768e+01 -2.8056713670903193e+00 1.5217603332594251e+01 0 0 0
2027 1 1.5413558890499040e+01 -2.6768917772518370e+00 1.2510893756801593e+01 0 0 0
2030 1 1.9422614469219258e+01 -4.1910599874613572e+00 1.4025917473387709e+01 0 0 0
3031 1 1.7954863407459936e+01 -2.7451845388373881e+00 1.5189552551501903e+01 0 0 0
4033 1 2.0673459513418472e+01 -5.5135716158832508e+00 2.0733961248141895e+01 0 0 0
2037 1 2.3505016079391723e+01 -5.4545370406636842e+00 1.2583032758226185e+01 0 0 0
2038 1 2.4736360891772826e+01 -4.0041160044356472e+00 1.3764552547880013e+01 0 0 0
3039 1 2.3389254670133958e+01 -2.7386353108539567e+00 1.5206201903342153e+01 0 0 0
3037 1 2.3495331387950475e+01 -5.3557746233844341e+00 1.7972800875881617e+01 0 0 0
2004 1 2.9923954946970466e-01 -1.2603837085125460e+00 1.3988883931578609e+01 0 0 0
3041 1 2.6038990821895329e+01 -7.2086029520816428e-02 1.5306693955401700e+01 -1 0 0
2046 1 3.0372841313959551e+00 1.2883125517694098e+00 1.3824541652412490e+01 0 0 0
3049 1 4.2758517133221430e+00 -5.7421431960005279e-02 1.5311983043302476e+01 0 0 0
2012 1 5.6893305927816531e+00 -1.3901796083509967e+00 1.3864317414674337e+01 0 0 0
3029 1 1.7951343100474411e+01 -5.4515555133330054e+00 1.7941596200776750e+01 0 0 0
2054 1 8.4392088841025910e+00 1.3206423244555920e+00 1.3831589542917959e+01 0 0 0
3057 1 9.7095144576797576e+00 4.7092466861702632e-03 1.5211465375758507e+01 0 0 0
2020 1 1.1127856048927971e+01 -1.3571492506771570e+00 1.3796018131278860e+01 0 0 0
2062 1 1.3891965516469797e+01 1.1849665642031166e+00 1.4061073413620585e+01 0 0 0
3033 1 2.0899597406742288e+01 -5.4041251666389769e+00 1.5291119951814139e+01 0 0 0
2028 1 1.6699204453135067e+01 -1.2982889041793209e+00 1.3996742328099264e+01 0 0 0
3065 1 1.5341281874073280e+01 5.6820212837767154e-03 1.5474491229636898e+01 0 0 0
4149 1 1.7839905456149221e+01 1.0923548440755161e+01 2.3425561911921243e+01 0 0 0
2070 1 1.9397716711977687e+01 1.4003496986985124e+00 1.3986824989978379e+01 0 0 0
2036 1 2.1918168676993680e+01 -1.3785838336099085e+00 1.3856213858579705e+01 0 0 0
3073 1 2.0595287773970878e+01 -7.4782331449227815e-02 1.5321991763199224e+01 0 0 0
2077 1 2.3472115343588378e+01 5.7936325574108024e-03 1.2569119969461044e+01 0 0 0
2044 1 2.9258896374106791e-01 3.9629549013302845e+00 1.3732785945981774e+01 0 0 0
3047 1 1.7212733824512245e+00 2.6692429794959156e+00 1.5247404546808372e+01 0 0 0
4108 1 1.6455772661916281e+01 9.4055427427807015e+00 2.4738512006386969e+01 0 0 0
2052 1 5.6506727135900778e+00 4.1813443798255125e+00 1.3701659989872848e+01 0 0 0
3055 1 6.9274638011146443e+00 2.7726840051119863e+00 1.5061331450514940e+01 0 0 0
2060 1 1.1133754586643006e+01 4.1482813604059725e+00 1.3971001523675532e+01 0 0 0
3063 1 1.2453844132161764e+01 2.7022692608977312e+00 1.5147342760877548e+01 0 0 0
2067 1 1.5288352640512530e+01 2.5926388333697776e+00 1.2612990367067146e+01 0 0 0
2068 1 1.6586023724938286e+01 4.0225981401962141e+00 1.3864714473058170e+01 0 0 0
3071 1 1.7886735542937313e+01 2.7481775293866479e+00 1.5205511476776865e+01 0 0 0