LAMMPS data file via write_data, version 30 Jul 2016, timestep = 50000

5000 atoms
1 atom types

-1.1037168688014471e+00 2.6103716868801385e+01 xlo xhi
-5.5185843440072304e+00 1.3051858434400725e+02 ylo yhi
-1.1037168688014471e+00 2.6103716868801385e+01 zlo zhi

Masses

1 28.0855

Atoms # atomic

2 1 3.2472984514245584e-01 -4.1661879121635241e+00 2.2190646425031235e-01 0 0 0
3 1 -9.1694988323516713e-01 -2.6785267829933681e+00 1.7349307623982795e+00 0 0 0
7 1 1.7123024203452588e+00 -2.8609252026563019e+00 -1.0664782316196837e+00 0 0 0
11 1 4.2761159014895913e+00 -2.7008507315281935e+00 1.7106882823680545e+00 0 0 0
10 1 5.8201092547262894e+00 -3.9705485023944926e+00 2.7554558694207076e-01 0 0 0
2009 1 4.3682333300871123e+00 -5.4854487584528329e+00 9.8555553501632449e+00 0 0 0
19 1 9.9202086801725144e+00 -2.5953579972302210e+00 1.6907726968844381e+00 0 0 0
1037 1 2.3506090461021866e+01 -5.4720235971042541e+00 7.1221598271290585e+00 0 0 0
18 1 1.1159064224963622e+01 -4.1915315202264560e+00 3.5980629104669620e-01 0 0 0
23 1 1.2612097168328591e+01 -2.9457637412418576e+00 -9.9251889154790141e-01 0 0 0
27 1 1.5115448226180563e+01 -2.8035532801598437e+00 1.6459899796366331e+00 0 0 0
26 1 1.6648607214531122e+01 -3.9874986017672294e+00 3.0423884626844477e-01 0 0 0
1029 1 1.7995336770884180e+01 -5.5142216953790921e+00 7.0919407246843909e+00 0 0 0
34 1 2.2117357585893707e+01 -3.9203846640658071e+00 3.0464598181328190e-01 0 0 0
35 1 2.0773064395802702e+01 -2.5947205596354137e+00 1.7261080014623784e+00 0 0 0
1005 1 1.6887967333783165e+00 -5.4184949540468494e+00 7.0598573131098989e+00 0 0 0
41 1 -1.0567124412775926e+00 -6.0184041149961572e-02 -1.0420224745371991e+00 0 0 0
45 1 1.5410682421690243e+00 7.7200771286053474e-02 1.5864427768848803e+00 0 0 0
1009 1 4.3764859799985372e+00 -5.3866315638089759e+00 4.2365298897458485e+00 0 0 0
8 1 2.9617307576625271e+00 -1.3541011704428352e+00 2.6621385676050863e-01 0 0 0
53 1 6.9746292101041183e+00 -3.7682589355822679e-02 1.7266739006928715e+00 0 0 0
50 1 5.7490455802625160e+00 1.3146971766329947e+00 1.5150895143749055e-01 0 0 0
16 1 8.4341242887257728e+00 -1.4423010026998684e+00 3.1950975015083422e-01 0 0 0
57 1 9.8937332138212497e+00 -1.7708059327770184e-01 -1.0457976617919120e+00 0 0 0
58 1 1.1237208593065047e+01 1.2693801822140520e+00 1.7933592183447358e-01 0 0 0
24 1 1.3906718189587369e+01 -1.4161686688807673e+00 2.2014718149161638e-01 0 0 0
61 1 1.2505835189229511e+01 -1.5212003950762140e-01 1.6864929358365663e+00 0 0 0
66 1 1.6623417004996750e+01 1.3621908992643685e+00 2.0639301978581492e-01 0 0 0
1001 1 -9.3456966096544170e-01 -5.4401030704016478e+00 4.4436952388591777e+00 0 0 0
69 1 1.7897854478778335e+01 -1.3778139821507684e-01 1.4480896423630518e+00 0 0 0
32 1 1.9333179329000572e+01 -1.3905678766627347e+00 1.4739224588212152e-01 0 0 0
73 1 2.0614024818781083e+01 7.5350443116274689e-03 -1.0843120855548767e+00 0 0 0
77 1 2.3498647602903951e+01 9.3494469578394371e-02 1.6669452565287404e+00 0 0 0
40 1 2.4715407036583752e+01 -1.4467871942762824e+00 3.9702452387838227e-01 0 0 0
42 1 1.4623619625101145e-01 1.3726446650395707e+00 2.0704103676068680e-01 0 0 0
37 1 2.3571244500410149e+01 -5.3464221984468168e+00 1.6557159814414957e+00 0 0 0
51 1 4.4366525194003943e+00 2.7155873664090882e+00 1.4967573847068232e+00 0 0 0
48 1 2.9880796215536982e+00 4.0113903037745038e+00 1.5324330384940379e-01 0 0 0
56 1 8.6423457673231656e+00 3.9069830601188782e+00 3.2964779845284192e-01 0 0 0
59 1 9.8904919339634976e+00 2.5160534720417518e+00 1.6890038255321305e+00 0 0 0
64 1 1.3831400692754588e+01 4.0516275160511954e+00 2.7052250520613813e-01 0 0 0
67 1 1.5242695334985013e+01 2.5789325543459252e+00 1.5908463717810000e+00 0 0 0
72 1 1.9371252748003432e+01 3.9746289158122661e+00 3.9690543204348561e-01 0 0 0
71 1 1.7984556347090521e+01 2.7935702988956259e+00 -1.0095510679269670e+00 0 0 0
74 1 2.1987831526188838e+01 1.2859468207333196e+00 3.7211935955050812e-01 0 0 0
75 1 2.0639017405341132e+01 2.6577741805000437e+00 1.7054127426017187e+00 0 0 0
79 1 2.3323244686349106e+01 2.5914797648920813e+00 -1.0638031117537572e+00 0 0 0
80 1 2.4679194089175844e+01 4.0827916195818315e+00 9.7241565275166114e-02 0 0 0
43 1 2.5961460635971584e+01 2.6538268528935376e+00 1.5503179733864125e+00 -1 0 0
82 1 3.3399882940571329e-01 6.8422934609033499e+00 3.7323676960856361e-01 0 0 0
85 1 1.6042690013379826e+00 5.4205766506450663e+00 1.6160531645758225e+00 0 0 0
33 1 2.0724346561628732e+01 -5.4909558089137533e+00 -1.0075388401666159e+00 0 0 0
2029 1 1.7984020779273234e+01 -5.4575601665053739e+00 1.2456714813017321e+01 0 0 0
91 1 4.3017582154161769e+00 8.0915781926635972e+00 1.6856655083315546e+00 0 0 0
90 1 5.6672405766713121e+00 6.6354202225472338e+00 2.2410106198303198e-01 0 0 0
93 1 6.9746454023739810e+00 5.3113694969162042e+00 1.6329300675873475e+00 0 0 0
98 1 1.1113145101929238e+01 6.7607013170797261e+00 4.3086086745983115e-01 0 0 0
101 1 1.2564862406479953e+01 5.3641735150530190e+00 1.6735855765909131e+00 0 0 0
106 1 1.6543322518016570e+01 6.7858929470765288e+00 3.0735144004122839e-01 0 0 0
29 1 1.8020292247344429e+01 -5.3578848436898454e+00 1.6425294789210660e+00 0 0 0
109 1 1.7986029256242063e+01 5.4241360661352029e+00 1.6328099532848621e+00 0 0 0
114 1 2.1993602947079399e+01 6.6137383329897839e+00 2.6638948179376737e-01 0 0 0
115 1 2.0652060341316293e+01 8.1422107306267009e+00 1.5100187431613108e+00 0 0 0
113 1 2.0702414059809456e+01 5.3083189098631705e+00 -1.0709468456659867e+00 0 0 0
117 1 2.3375698067934273e+01 5.3357362784142657e+00 1.6552853780409971e+00 0 0 0
81 1 2.6046225254028091e+01 5.6263549943102769e+00 -1.0497532730653445e+00 -1 0 0
125 1 1.5419040417411474e+00 1.0800177516325476e+01 1.6214858266528571e+00 0 0 0
88 1 2.9947314756679124e+00 9.5212792750831703e+00 2.7357382729113788e-01 0 0 0
25 1 1.5339530039336434e+01 -5.4327860601273983e+00 -9.4943327128480381e-01 0 0 0
133 1 6.9931431251865916e+00 1.0664952341702115e+01 1.6915226688385707e+00 0 0 0
99 1 9.6639376785472564e+00 8.1193214549401898e+00 1.7004570827582364e+00 0 0 0
96 1 8.3661221228817659e+00 9.4963704558373987e+00 2.3178484325868248e-01 0 0 0
13 1 7.2520959712041213e+00 -5.4178245816018489e+00 1.5694296026844194e+00 0 0 0
103 1 1.2367311997265091e+01 8.0178764420923354e+00 -1.0874110540635713e+00 0 0 0
104 1 1.3759879518266121e+01 9.4357731437912911e+00 1.3753273181975451e-01 0 0 0
141 1 1.2502103698237617e+01 1.0840951244469103e+01 1.5972038475337653e+00 0 0 0
107 1 1.5081257226156685e+01 8.1512932179318067e+00 1.4946203831126457e+00 0 0 0
9 1 4.4644694852830646e+00 -5.4571214570902669e+00 -1.0133704413026572e+00 0 0 0
149 1 1.7778247847115491e+01 1.0839261950148581e+01 1.5414024889390603e+00 0 0 0
112 1 1.9243824825598754e+01 9.5479033575845911e+00 1.4589648240926650e-01 0 0 0
157 1 2.3250171076993883e+01 1.0946770878388570e+01 1.4682865756487227e+00 0 0 0
120 1 2.4709604617173742e+01 9.5096499550760782e+00 2.4457305505673957e-01 0 0 0
83 1 2.5984171390992994e+01 8.2410822958998882e+00 1.6363782017890318e+00 -1 0 0
2001 1 -1.0489976276233790e+00 -5.4751433257867745e+00 9.7494433024199481e+00 0 0 0
1007 1 1.6149866815779943e+00 -2.6897339549555435e+00 4.2375319205830770e+00 0 0 0
6 1 2.9186552399217485e+00 -4.0717516376634206e+00 2.9688891526869226e+00 0 0 0
1015 1 7.0330479425344867e+00 -2.7654721284718011e+00 4.3020576490080371e+00 0 0 0
1010 1 5.6941639872111649e+00 -4.0518715755949781e+00 5.8136293079268464e+00 0 0 0
14 1 8.5010685260462644e+00 -4.0373179057184334e+00 3.0345677159847870e+00 0 0 0
1017 1 9.7261969366082965e+00 -5.5111393561926629e+00 4.4367677660603508e+00 0 0 0
1018 1 1.1220579125620288e+01 -4.0731347661416955e+00 5.6800894219520961e+00 0 0 0
22 1 1.3851742926744949e+01 -4.1373457031811132e+00 3.0183325564673442e+00 0 0 0
1023 1 1.2624491089359232e+01 -2.8094242922211889e+00 4.4387393001692708e+00 0 0 0
1031 1 1.7932441239323140e+01 -2.7791154402534852e+00 4.2598770351616011e+00 0 0 0
30 1 1.9375196581440225e+01 -4.0589901656436869e+00 2.9877933216980126e+00 0 0 0
1033 1 2.0770917813536787e+01 -5.3153756546685003e+00 4.3892852832238098e+00 0 0 0
38 1 2.4954231283088088e+01 -4.0068333980371671e+00 3.1146645882990125e+00 0 0 0
1039 1 2.3475133882059833e+01 -2.5192992104122349e+00 4.3895017996780918e+00 0 0 0
4 1 2.2927569040739032e-01 -1.2257919760731433e+00 3.0704443221374569e+00 0 0 0
1042 1 2.6878470145380445e-01 1.5694973109562376e+00 5.8244716218075760e+00 0 0 0
1049 1 4.2667421094755387e+00 6.3768117542180550e-02 4.4502065336232191e+00 0 0 0
1008 1 2.9222022477414398e+00 -1.4481603913119585e+00 5.7490473999880383e+00 0 0 0
12 1 5.5685669958890687e+00 -1.3949336470952272e+00 3.0145779098868495e+00 0 0 0
54 1 8.4381600175266023e+00 1.3137316702818398e+00 3.0691020891690330e+00 0 0 0
1057 1 9.7964724664765690e+00 -7.5938697799830784e-02 4.3690070142698572e+00 0 0 0
1016 1 8.3259849849970387e+00 -1.2927958351638751e+00 5.6580200736999924e+00 0 0 0
20 1 1.1187222505193278e+01 -1.4397084816638424e+00 3.1423427512286919e+00 0 0 0
1058 1 1.1125109960754346e+01 1.4270439738790837e+00 5.7746383176642295e+00 0 0 0
1024 1 1.3898224922148007e+01 -1.3636317939357916e+00 5.6984707674028767e+00 0 0 0
1065 1 1.5246970576573100e+01 -1.1589792080292749e-03 4.3357861843597512e+00 0 0 0
28 1 1.6450632182708652e+01 -1.3852010691877705e+00 2.8788224980723753e+00 0 0 0
1073 1 2.0526833555401620e+01 1.1914304463884036e-01 4.3928816438395693e+00 0 0 0
36 1 2.2011749030190330e+01 -1.1752692232206394e+00 3.0595539430895475e+00 0 0 0
1041 1 -1.0449684824698693e+00 5.3389679145860680e-02 4.4194043256721054e+00 0 0 0
78 1 2.4776206283294179e+01 1.3358519804658957e+00 3.1618083140982471e+00 0 0 0
44 1 2.3979520605405863e-01 4.0466603381488344e+00 3.0517238893252325e+00 0 0 0
1047 1 1.5882595434617881e+00 2.8025113638833909e+00 4.3528488355452133e+00 0 0 0
46 1 3.1059440975278032e+00 1.4164034035362649e+00 2.9580217877503983e+00 0 0 0
1048 1 3.0990266290098822e+00 4.0648154275803074e+00 5.6419687115109145e+00 0 0 0
52 1 5.8239822015517859e+00 3.8596994973166088e+00 3.0510043022741606e+00 0 0 0
1055 1 7.1808741877857631e+00 2.6289604601746936e+00 4.4769094147646156e+00 0 0 0
1056 1 8.4310252551575164e+00 4.1354283045662230e+00 5.7867833854597679e+00 0 0 0
60 1 1.1120710366490833e+01 4.0434880895180312e+00 3.0193423867321196e+00 0 0 0
62 1 1.3872095860810557e+01 1.2751288923875734e+00 2.9290919086064036e+00 0 0 0
1063 1 1.2558053672071511e+01 2.6981157970270035e+00 4.2393154341326307e+00 0 0 0
68 1 1.6658887980354052e+01 4.0414434613876900e+00 2.9138794348548438e+00 0 0 0
1071 1 1.7903172565969371e+01 2.7824126847323947e+00 4.3606001913525203e+00 0 0 0
70 1 1.9159966495652181e+01 1.2696274993622156e+00 2.9408389839680278e+00 0 0 0
76 1 2.2025824990609280e+01 4.0472871536507862e+00 3.0324944855822169e+00 0 0 0
1079 1 2.3475621562081191e+01 2.7067765800450734e+00 4.4676404502710616e+00 0 0 0
1087 1 1.5574178877983573e+00 8.0272723565764910e+00 4.3568448583470323e+00 0 0 0
1089 1 4.4537859732367799e+00 5.3388691213414834e+00 4.2451498842528972e+00 0 0 0
86 1 3.0110838456166786e+00 6.6976662662958359e+00 3.0047720989838309e+00 0 0 0
94 1 8.2615989501756157e+00 6.8402235873992687e+00 3.0036315131397520e+00 0 0 0
1097 1 9.8078957954441908e+00 5.4528775780013312e+00 4.3127985977808150e+00 0 0 0
1103 1 1.2535179875186232e+01 8.0800591160909256e+00 4.1854094345696007e+00 0 0 0
102 1 1.4007391821116931e+01 6.7062960566390073e+00 2.9349750005036119e+00 0 0 0
1105 1 1.5271753083418094e+01 5.3877089316212068e+00 4.2249485348948559e+00 0 0 0
110 1 1.9308115222605505e+01 6.7888611170260278e+00 2.9750330272881667e+00 0 0 0
1113 1 2.0647850496730818e+01 5.3496570315968048e+00 4.4297759928098213e+00 0 0 0
118 1 2.4676005479264671e+01 6.7264870754677286e+00 2.9423180995473786e+00 0 0 0
1119 1 2.3222842648126836e+01 8.0836674864123790e+00 4.3541023501415772e+00 0 0 0
1081 1 2.6073185567274205e+01 5.2679002775371728e+00 4.4025092759750812e+00 -1 0 0
84 1 2.5335021988728462e-01 9.4925258799777232e+00 3.1153907681930995e+00 0 0 0
1129 1 4.3119937695418544e+00 1.0819780723922683e+01 4.3841200420719080e+00 0 0 0
1095 1 6.8963351578930334e+00 8.1251342081365916e+00 4.3779684836305144e+00 0 0 0
92 1 5.5526740276894984e+00 9.4025591639890358e+00 3.0183919514407664e+00 0 0 0
1137 1 9.6558899130131088e+00 1.0756772071132946e+01 4.4957893363499499e+00 0 0 0
100 1 1.1182643529253728e+01 9.4395421122185663e+00 3.0085361406987059e+00 0 0 0
1145 1 1.5118648925106765e+01 1.0620198540150344e+01 4.4083958947039719e+00 0 0 0
108 1 1.6529620295842996e+01 9.3049816401749261e+00 2.8941405815814916e+00 0 0 0
1111 1 1.7909172042857776e+01 8.0955121836160249e+00 4.4423880800734192e+00 0 0 0
1153 1 2.0572102413566245e+01 1.0902678294874413e+01 4.3395275767453452e+00 0 0 0
116 1 2.1894811727124800e+01 9.4754108662883798e+00 2.8273042605903917e+00 0 0 0
1120 1 2.4607045765836880e+01 9.2745601638155648e+00 5.6102555035308770e+00 0 0 0
1121 1 2.5968537640998303e+01 1.0732930007475582e+01 4.4563810712925678e+00 -1 0 0
1002 1 4.0486885065863393e-01 -4.0547910924643151e+00 5.7012975746484216e+00 0 0 0
1011 1 4.4260465414138039e+00 -2.7683436366232446e+00 7.1593534643103007e+00 0 0 0
1006 1 2.9350408477558330e+00 -4.1283925377109840e+00 8.4202767057474635e+00 0 0 0
1013 1 7.1159921339167038e+00 -5.4652376468479833e+00 7.0619664514141540e+00 0 0 0
1019 1 9.7235005142781734e+00 -2.7818945345551844e+00 6.9758924349671423e+00 0 0 0
1014 1 8.3889659698529790e+00 -4.0215264523955936e+00 8.3601174588104019e+00 0 0 0
1021 1 1.2520576417790771e+01 -5.4840885416399869e+00 7.0383123835259012e+00 0 0 0
1022 1 1.3970854801117159e+01 -4.1884285309730256e+00 8.3701742680472933e+00 0 0 0
1027 1 1.5182718891782111e+01 -2.8170856825449726e+00 7.1420117046353546e+00 0 0 0
1026 1 1.6505469933920107e+01 -4.1830334901779942e+00 5.7538601595836090e+00 0 0 0
1030 1 1.9487712500855388e+01 -4.1439533185886619e+00 8.3756270610277799e+00 0 0 0
1034 1 2.2211820698157705e+01 -3.9592178485655820e+00 5.7987244123757105e+00 0 0 0
1035 1 2.0683495042782337e+01 -2.6244672490473691e+00 6.8664515908308097e+00 0 0 0
1038 1 2.4867804792960136e+01 -4.1199660381556908e+00 8.4578445126375126e+00 0 0 0
1003 1 -9.8757329617944123e-01 -2.7162100727482272e+00 7.0729600917530746e+00 0 0 0
1045 1 1.6935778051445789e+00 5.9925231579061412e-02 7.0947448816435985e+00 0 0 0
1004 1 3.9181295288421447e-01 -1.3104344559342058e+00 8.4387768930390941e+00 0 0 0
1053 1 7.0119486937714557e+00 -5.8844653475119003e-02 7.0768977640220969e+00 0 0 0
1012 1 5.7984584184536470e+00 -1.4609777113238573e+00 8.6119432250650885e+00 0 0 0
1020 1 1.1138079006192399e+01 -1.5386546034695376e+00 8.4214859933021895e+00 0 0 0
1061 1 1.2371349296572403e+01 -2.7764811487364892e-02 7.2194915193912310e+00 0 0 0
1028 1 1.6634823142113806e+01 -1.3197954434709560e+00 8.3704610952249041e+00 0 0 0
1069 1 1.7965858756776669e+01 1.1703832153439574e-03 6.9762149662902004e+00 0 0 0
1032 1 1.9204036973459530e+01 -1.2936926639760185e+00 5.6748608460037380e+00 0 0 0
1074 1 2.1934739107555952e+01 1.4014116077505063e+00 5.6835957083130442e+00 0 0 0
1036 1 2.2085335251816414e+01 -1.2957624865071629e+00 8.3467883335325013e+00 0 0 0
1077 1 2.3390454516871557e+01 9.6306374484315893e-02 7.0390918379889769e+00 0 0 0
1040 1 2.4854221653996323e+01 -1.2816880351401434e+00 5.7635290631743663e+00 0 0 0
1044 1 4.1194378706896967e-01 4.1417735997659229e+00 8.4295002081441908e+00 0 0 0
1051 1 4.4517944075189488e+00 2.6655994360378288e+00 7.1201157226313869e+00 0 0 0
1046 1 3.0485417240976451e+00 1.3246820832306490e+00 8.4192464002316374e+00 0 0 0
1050 1 5.7228298517361882e+00 1.2958665614698466e+00 5.7111331613260390e+00 0 0 0
1052 1 5.6448670108245347e+00 4.1706580719785800e+00 8.4303914850589994e+00 0 0 0
1059 1 9.7726339498850532e+00 2.7238265662642487e+00 7.0049365244953368e+00 0 0 0
1054 1 8.4248487561785304e+00 1.2874451041055957e+00 8.4295482390121599e+00 0 0 0
1060 1 1.1197743536245831e+01 3.8772329564720964e+00 8.4323645519568284e+00 0 0 0
1064 1 1.3982600303449086e+01 4.0669326957006229e+00 5.5966065133836329e+00 0 0 0
1062 1 1.3897482407509843e+01 1.2257645916088598e+00 8.3263966024970042e+00 0 0 0
1066 1 1.6585668197364008e+01 1.3897741348952839e+00 5.7027305159221724e+00 0 0 0
1067 1 1.5174118164679868e+01 2.6756917487549616e+00 7.1090436515227564e+00 0 0 0
1068 1 1.6627683819567910e+01 4.0727202582597046e+00 8.3954601991425424e+00 0 0 0
1072 1 1.9151060444684028e+01 4.0589123744192506e+00 5.7473504709844097e+00 0 0 0
1070 1 1.9292327758861418e+01 1.4014193418093916e+00 8.4937440339355135e+00 0 0 0
1075 1 2.0511734744431475e+01 2.7433535346444748e+00 7.1292954390922851e+00 0 0 0
1076 1 2.2033019315121948e+01 4.0608905052187545e+00 8.5182602454076335e+00 0 0 0
1080 1 2.4680845663519165e+01 4.0904516843362808e+00 5.8849533183866125e+00 0 0 0
1078 1 2.4697619463563484e+01 1.4211801451434778e+00 8.5241319947825556e+00 0 0 0
1043 1 -1.0447272953843481e+00 2.8333540165978244e+00 7.2740772786539338e+00 0 0 0
1082 1 3.2446540447696320e-01 6.7092357705296433e+00 5.6624342841784285e+00 0 0 0
1085 1 1.7995696322043129e+00 5.4249127895056173e+00 7.0742281790948480e+00 0 0 0
1091 1 4.2758381085625166e+00 8.1065702577047194e+00 7.0793355619201908e+00 0 0 0
1086 1 2.9718560604498307e+00 6.8732131022187799e+00 8.5471674927623464e+00 0 0 0
1090 1 5.6884748355044765e+00 6.7441982774365785e+00 5.7552078574916532e+00 0 0 0
1093 1 6.9585545396817663e+00 5.4737510899620290e+00 7.0386538102284488e+00 0 0 0
1099 1 9.8320857780411064e+00 8.0627569869917437e+00 7.0354486790348352e+00 0 0 0
1094 1 8.5010654666076988e+00 6.6391533885625664e+00 8.3944631068824247e+00 0 0 0
1098 1 1.1154554579597342e+01 6.7232165960393315e+00 5.5802031300908022e+00 0 0 0
1101 1 1.2473929856692948e+01 5.2794128589459488e+00 6.9770262239633194e+00 0 0 0
1102 1 1.3959705591821937e+01 6.4989827115689653e+00 8.3414595410089873e+00 0 0 0
1106 1 1.6497651310892284e+01 6.7038814771034065e+00 5.6692700080174960e+00 0 0 0
1109 1 1.7979644796014714e+01 5.5787426120174910e+00 7.1341787940490482e+00 0 0 0
1110 1 1.9393709191617269e+01 6.8016582536010253e+00 8.5626506392777237e+00 0 0 0
1114 1 2.1924547145576817e+01 6.7290573267459948e+00 5.8852037354191786e+00 0 0 0
1117 1 2.3304890063315447e+01 5.4151655550671531e+00 7.2344303138299262e+00 0 0 0
1118 1 2.4686563840543755e+01 6.7549603834777825e+00 8.3953231759455438e+00 0 0 0
1083 1 -1.0513925611885888e+00 8.0857670309957044e+00 6.9019358125887793e+00 0 0 0
1125 1 1.6525093046186541e+00 1.0892423069095345e+01 7.0152616046506813e+00 0 0 0
1084 1 1.9044496869241212e-01 9.4827153565753584e+00 8.3833085008872104e+00 0 0 0
1088 1 2.9038671365007662e+00 9.4391105386351075e+00 5.6474448554086507e+00 0 0 0
1133 1 7.0519284548158936e+00 1.0826533279370272e+01 7.0102993388810573e+00 0 0 0
1092 1 5.6698905051833499e+00 9.4367872119761795e+00 8.4895084306417470e+00 0 0 0
1096 1 8.3080198477228393e+00 9.3195807870132974e+00 5.7836690144355245e+00 0 0 0
1141 1 1.2427444386420213e+01 1.0675747662737344e+01 7.2363023827722550e+00 0 0 0
1100 1 1.1111626487669366e+01 9.3719127022433160e+00 8.4509163081838032e+00 0 0 0
1104 1 1.3699244614497029e+01 9.2700639843275869e+00 5.8522063672166755e+00 0 0 0
1107 1 1.5209198295096854e+01 7.9966152992623121e+00 7.0180976918052673e+00 0 0 0
1108 1 1.6426476655592371e+01 9.3763406709968002e+00 8.5200163866671677e+00 0 0 0
1149 1 1.7813318928882779e+01 1.0777083692578783e+01 7.2233126882175025e+00 0 0 0
1112 1 1.9241337460770978e+01 9.4747910276746961e+00 5.7812124867030352e+00 0 0 0
1115 1 2.0680838684833901e+01 8.1783589732277608e+00 7.1198231521977595e+00 0 0 0
1116 1 2.1988678514646612e+01 9.5567900208538124e+00 8.4608075070497559e+00 0 0 0
1157 1 2.3243436925173267e+01 1.0767314779713653e+01 7.0319709027709951e+00 0 0 0
2007 1 1.6299860770199697e+00 -2.8083918764024838e+00 9.7182617014764805e+00 0 0 0
2002 1 3.0011987377653210e-01 -4.1328031733079200e+00 1.1113638831740268e+01 0 0 0
2121 1 2.6007537383500818e+01 1.0712731022950994e+01 9.7623683527958249e+00 -1 0 0
2003 1 -9.9847458730103278e-01 -2.7236561894032394e+00 1.2440653315094215e+01 0 0 0
2011 1 4.3137898222897944e+00 -2.7448533508190236e+00 1.2422156050978563e+01 0 0 0
2015 1 7.1298362257620518e+00 -2.8675304184506767e+00 9.8737718270700565e+00 0 0 0
2010 1 5.6780013144837040e+00 -4.1940517411158842e+00 1.1144438875772185e+01 0 0 0
2017 1 9.8066407110976197e+00 -5.4629014012040011e+00 9.5332589596275312e+00 0 0 0
2023 1 1.2572831417268965e+01 -2.7853146143765306e+00 9.7635566546069512e+00 0 0 0
2018 1 1.1167353977745679e+01 -4.2556527915908955e+00 1.1191598028190752e+01 0 0 0
2025 1 1.5311885642439645e+01 -5.4787156454631951e+00 9.6977926965966716e+00 0 0 0
2026 1 1.6641557100489976e+01 -4.1343377805422996e+00 1.1113793386406828e+01 0 0 0
2031 1 1.8009347494942087e+01 -2.7718215793883103e+00 9.7095574467771915e+00 0 0 0
2034 1 2.2209739526965095e+01 -4.2165399824398158e+00 1.1154770942685134e+01 0 0 0
2039 1 2.3344272742455594e+01 -2.7014427344571366e+00 9.7157378792349629e+00 0 0 0
2042 1 3.6806976359188437e-01 1.4116924818027963e+00 1.1189782707937107e+01 0 0 0
2041 1 -9.8410190377598350e-01 9.7898707274553659e-02 9.7570881144474768e+00 0 0 0
2049 1 4.4399458894820585e+00 -5.2097781314249317e-04 9.9052643205414110e+00 0 0 0
2008 1 3.0168647294331983e+00 -1.5449659441188710e+00 1.1085472196403503e+01 0 0 0
2057 1 9.8992751988889349e+00 -5.3069242035781138e-02 9.5908476760956827e+00 0 0 0
2016 1 8.3879936746519679e+00 -1.2134426661969402e+00 1.1060028301437345e+01 0 0 0
2024 1 1.3860783260619144e+01 -1.3933356630373832e+00 1.1186796919927486e+01 0 0 0
2065 1 1.5242463491730096e+01 -1.3609164360170491e-02 9.7847358825657551e+00 0 0 0
2066 1 1.6541383369534305e+01 1.4056062393713151e+00 1.1089328287611636e+01 0 0 0
2032 1 1.9464188007498404e+01 -1.5016498864922023e+00 1.1161522420855583e+01 0 0 0
2073 1 2.0712761777883532e+01 -4.6560753663369051e-02 9.8193778405606462e+00 0 0 0
2040 1 2.4838388786636230e+01 -1.3998217586783495e+00 1.1071486118766931e+01 0 0 0
2047 1 1.7424691464354958e+00 2.7117948553156879e+00 9.8494346336772782e+00 0 0 0
2043 1 -1.0497501035502093e+00 2.7336998302410667e+00 1.2483450299167755e+01 0 0 0
2048 1 3.0557704066016513e+00 4.0120733976863043e+00 1.1206397306166462e+01 0 0 0
2055 1 6.9719066371201368e+00 2.7031112185101196e+00 9.6311002516313984e+00 0 0 0
2050 1 5.7653185998913372e+00 1.4088764780205612e+00 1.1131729047819533e+01 0 0 0
2056 1 8.4231280522652394e+00 4.0369776706854248e+00 1.1165784256981787e+01 0 0 0
5 1 1.5976879010475213e+00 -5.4318896261289069e+00 1.6994904787295519e+00 0 0 0
2058 1 1.1190926950057685e+01 1.3145967582035654e+00 1.1071212440446907e+01 0 0 0
2064 1 1.3966633302691152e+01 3.9522898770193442e+00 1.1189335408411615e+01 0 0 0
2063 1 1.2657533143350916e+01 2.5690480336897661e+00 9.7746907085333365e+00 0 0 0
2071 1 1.7888711868736575e+01 2.7469061620260384e+00 9.8393418659152534e+00 0 0 0
2072 1 1.9318813601769122e+01 4.0421867151307449e+00 1.1222103788897051e+01 0 0 0
2074 1 2.2130668970320180e+01 1.4065910562713888e+00 1.1186538345218830e+01 0 0 0
2079 1 2.3479403068542513e+01 2.8687561885765738e+00 9.8949942819537711e+00 0 0 0
2080 1 2.4853555492488599e+01 4.1655404487478425e+00 1.1214374771489929e+01 0 0 0
2082 1 4.3330357581487960e-01 6.8473708325697116e+00 1.1181851321333570e+01 0 0 0
2081 1 -9.8530928434972775e-01 5.5840952299207816e+00 9.8284367195023581e+00 0 0 0
2089 1 4.2725805646223414e+00 5.4620859205621022e+00 9.9493331375174048e+00 0 0 0
2090 1 5.6982943203759389e+00 6.8498479889062445e+00 1.1054730421415279e+01 0 0 0
2097 1 9.8297404904659871e+00 5.2908532436292344e+00 9.7788492958183859e+00 0 0 0
2098 1 1.1259842521731136e+01 6.7066502550847211e+00 1.1078838840003984e+01 0 0 0
2105 1 1.5335093605007996e+01 5.2607220473047001e+00 9.8292160486982176e+00 0 0 0
2106 1 1.6438177042252189e+01 6.7687809232239688e+00 1.1175700932415802e+01 0 0 0
2111 1 1.7866013501660607e+01 8.1017943397143668e+00 9.8338562951044040e+00 0 0 0
2113 1 2.0809325254175278e+01 5.4182652928859429e+00 9.8866356500580572e+00 0 0 0
2114 1 2.2058348726081341e+01 6.8632067420977148e+00 1.1261813421064321e+01 0 0 0
2119 1 2.3445692936317450e+01 8.2111889357618377e+00 9.7434586079784555e+00 0 0 0
2120 1 2.4710182819743416e+01 9.4694995875221810e+00 1.1199753498873134e+01 0 0 0
2087 1 1.5871398714838918e+00 8.2532220524853521e+00 9.9295948396191811e+00 0 0 0
2129 1 4.1956784477698843e+00 1.0745838908566096e+01 9.8247129777826014e+00 0 0 0
2088 1 2.8855728217175431e+00 9.5159598003442287e+00 1.1306890453582447e+01 0 0 0
2095 1 7.1517973257055241e+00 8.0242849800750253e+00 9.6294266354199198e+00 0 0 0
2137 1 9.7980170528057133e+00 1.0855386495328025e+01 9.7303974603798444e+00 0 0 0
2096 1 8.5424868263346081e+00 9.3844077313550951e+00 1.1089901049291425e+01 0 0 0
2103 1 1.2716727412518846e+01 7.9862423689078250e+00 9.7115625509813288e+00 0 0 0
2104 1 1.3804652647954329e+01 9.4847697091101644e+00 1.1129082677882979e+01 0 0 0
2145 1 1.5100668310868407e+01 1.0889899507491087e+01 9.7493761116112019e+00 0 0 0
2112 1 1.9404592121365546e+01 9.4889442598946037e+00 1.1027686566294216e+01 0 0 0
2153 1 2.0780102850182367e+01 1.0981735355507897e+01 9.7372385817753084e+00 0 0 0
2019 1 9.7766599459980199e+00 -2.5889798871054124e+00 1.2391305813812355e+01 0 0 0
2027 1 1.5339745515299880e+01 -2.6750571548525999e+00 1.2426295269535153e+01 0 0 0
2045 1 1.6402190100266449e+00 -1.3738227748816711e-01 1.2445137403318725e+01 0 0 0
2069 1 1.7988666268066417e+01 1.6794156020145446e-03 1.2426026303887115e+01 0 0 0
2077 1 2.3409977181180746e+01 -4.7383915182926790e-02 1.2499961917670525e+01 0 0 0
2051 1 4.3193178148962428e+00 2.7608079032863371e+00 1.2496218047932125e+01 0 0 0
2085 1 1.6778133835897289e+00 5.4458531431608810e+00 1.2403117010006239e+01 0 0 0
2093 1 7.1372925181431679e+00 5.5406300649593287e+00 1.2424556674347604e+01 0 0 0
2099 1 9.8802671879426782e+00 8.0072478454205047e+00 1.2495033131348173e+01 0 0 0
2109 1 1.7825686963767847e+01 5.3098728057809712e+00 1.2454229926114861e+01 0 0 0
2133 1 7.0745356742930179e+00 1.0754094184616708e+01 1.2459027739264910e+01 0 0 0
2149 1 1.7904609669343969e+01 1.0839779404668894e+01 1.2473010724609079e+01 0 0 0
2115 1 2.0625867979015339e+01 8.1997397168016217e+00 1.2472131626038932e+01 0 0 0
2083 1 -1.0843176783107218e+00 8.0281820194723057e+00 1.2475230613888252e+01 0 0 0
119 1 2.3336037140684230e+01 8.0563650333243046e+00 -1.0229122891436511e+00 0 0 0
63 1 1.2557657758096060e+01 2.6616804914437338e+00 -1.0920565958397930e+00 0 0 0
95 1 7.0315428429222990e+00 7.9852744828822235e+00 -1.0972136983220757e+00 0 0 0
97 1 9.9382167540261452e+00 5.3104443478549159e+00 -1.0483921063287198e+00 0 0 0
3007 1 1.5966730342094235e+00 -2.7301176987886340e+00 1.5258279215195378e+01 0 0 0
3001 1 -1.0046412910583740e+00 -5.3605616423606293e+00 1.5173021345026179e+01 0 0 0
2006 1 2.8972624782687735e+00 -4.1023711828410860e+00 1.3705146472343340e+01 0 0 0
3015 1 7.0757437119467630e+00 -2.6948182974135571e+00 1.5143752727445674e+01 0 0 0
2014 1 8.5988798364192593e+00 -3.9739602037939150e+00 1.3935480928108026e+01 0 0 0
4029 1 1.7918750337078880e+01 -5.3549037749636170e+00 2.3304614411600042e+01 0 0 0
4157 1 2.3421477729827597e+01 1.0726976662815403e+01 2.3229220082689160e+01 0 0 0
2022 1 1.3827281010617119e+01 -4.0661370225221942e+00 1.3724566005384712e+01 0 0 0
3023 1 1.2536643921101710e+01 -2.8470864513750938e+00 1.5211759437785329e+01 0 0 0
3037 1 2.3487353665147435e+01 -5.3984007005788328e+00 1.8041687584345809e+01 0 0 0
2030 1 1.9435431327573529e+01 -4.1749456214478089e+00 1.3966333672473414e+01 0 0 0
3031 1 1.7876885891757276e+01 -2.6954444047479362e+00 1.5268068083685964e+01 0 0 0
2035 1 2.0789168920853673e+01 -2.8955370710515824e+00 1.2508861227637723e+01 0 0 0
153 1 2.0665623279194328e+01 1.0840828396102969e+01 2.6019246063696372e+01 0 0 -1
2038 1 2.4759300851345678e+01 -3.9774834307006643e+00 1.3763263474749900e+01 0 0 0
3039 1 2.3354441413821686e+01 -2.7368850423389879e+00 1.5246572866546604e+01 0 0 0
3029 1 1.7958532066772072e+01 -5.4343751590300542e+00 1.8047371614080635e+01 0 0 0
2004 1 2.8439838176585236e-01 -1.2698983694861332e+00 1.3907572646891930e+01 0 0 0
3041 1 2.6072293362206100e+01 5.4014199719351480e-03 1.5266941075838687e+01 -1 0 0
2046 1 3.0159059214479988e+00 1.2769756142708264e+00 1.3874185732579502e+01 0 0 0
3049 1 4.2953118687322913e+00 -1.5956295603755544e-01 1.5243189199350709e+01 0 0 0
2012 1 5.6589052641533684e+00 -1.3893918865526351e+00 1.3877010635570498e+01 0 0 0
2053 1 7.0804340167591864e+00 -1.8106926109859107e-02 1.2520404318018974e+01 0 0 0
2054 1 8.4604345480201602e+00 1.3265885307837335e+00 1.3933051179158490e+01 0 0 0
3057 1 9.7731320441942948e+00 -4.7072116368455347e-02 1.5244223167926529e+01 0 0 0
2020 1 1.1145314477688379e+01 -1.4036525868515854e+00 1.3779208853880924e+01 0 0 0
2062 1 1.3943201304620256e+01 1.1872168872081508e+00 1.4042044711963134e+01 0 0 0
2061 1 1.2554460314208088e+01 9.8722281571458681e-02 1.2528234966937188e+01 0 0 0
2028 1 1.6660459998204718e+01 -1.3249470127796927e+00 1.3919261069691972e+01 0 0 0
3065 1 1.5278205324045313e+01 -1.0806982884316459e-01 1.5319477265433044e+01 0 0 0
3005 1 1.5149425744831861e+00 -5.5085418978968619e+00 1.7988406818752331e+01 0 0 0
2070 1 1.9346556652238000e+01 1.3792723927030506e+00 1.3895755602098452e+01 0 0 0
2036 1 2.2003050131849442e+01 -1.4128436235507817e+00 1.3805397717816781e+01 0 0 0
3073 1 2.0716421870085135e+01 -3.5794026904839737e-02 1.5201662067793595e+01 0 0 0
3033 1 2.0785284952371736e+01 -5.4701330401209987e+00 1.5319068133068392e+01 0 0 0
2044 1 2.4365525568539498e-01 4.0032005532494006e+00 1.3738998960648750e+01 0 0 0
3047 1 1.6730817943909733e+00 2.6929401047943422e+00 1.5150620980528990e+01 0 0 0
3025 1 1.5216083434378245e+01 -5.4891005686092456e+00 1.5014292865396071e+01 0 0 0
2052 1 5.6080955033681770e+00 4.1078218084110310e+00 1.3729429401771467e+01 0 0 0
3055 1 6.8903423859513362e+00 2.7770903650917185e+00 1.5065405131264443e+01 0 0 0