LAMMPS data file via write_data, version 30 Jul 2016, timestep = 50000

5000 atoms
1 atom types

-1.1037168688014471e+00 2.6103716868801385e+01 xlo xhi
-5.5185843440072304e+00 1.3051858434400725e+02 ylo yhi
-1.1037168688014471e+00 2.6103716868801385e+01 zlo zhi

Masses

1 28.0855

Atoms # atomic

2 1 3.0002989939701341e-01 -4.0500312886806595e+00 2.2242113898486571e-01 0 0 0
3 1 -1.0249795203987766e+00 -2.7459403229098536e+00 1.7251644602354825e+00 0 0 0
2009 1 4.3529756330554363e+00 -5.4929095165299202e+00 9.7793900380731120e+00 0 0 0
11 1 4.2619990405764758e+00 -2.6976613211311866e+00 1.5914677055783484e+00 0 0 0
10 1 5.8043297109015519e+00 -3.9905163088653390e+00 2.2875737910565355e-01 0 0 0
1037 1 2.3447516426906379e+01 -5.4549626997682310e+00 7.1199669751020433e+00 0 0 0
19 1 9.8155619831191654e+00 -2.7863892562394175e+00 1.6665629181281130e+00 0 0 0
17 1 9.8394339275648619e+00 -5.3641380802782619e+00 -1.0832708741054100e+00 0 0 0
18 1 1.1180728054951336e+01 -4.1050498608620138e+00 4.4180042454458013e-01 0 0 0
23 1 1.2541547050217330e+01 -2.9030940957529823e+00 -1.0637323402032852e+00 0 0 0
27 1 1.5198317613677087e+01 -2.9262198474188237e+00 1.5731149480872275e+00 0 0 0
26 1 1.6721375293632029e+01 -4.1139807286017165e+00 2.5371837408111519e-01 0 0 0
1029 1 1.7995676558115662e+01 -5.4764238572953161e+00 7.2277325990875614e+00 0 0 0
34 1 2.2112598548139548e+01 -4.0035607311704347e+00 2.9150391627826239e-01 0 0 0
35 1 2.0762754477686794e+01 -2.6405511087194675e+00 1.7460375404811490e+00 0 0 0
1005 1 1.7236178324044471e+00 -5.5098571083519232e+00 7.1658019406838829e+00 0 0 0
41 1 2.5998843058099499e+01 -6.1283473001475880e-02 -9.4804749746047390e-01 -1 0 0
45 1 1.5725388187888820e+00 4.4369003170527006e-02 1.7133405425594388e+00 0 0 0
2021 1 1.2503900402423433e+01 -5.4691499977977855e+00 1.2276832098329280e+01 0 0 0
8 1 2.9109143142168432e+00 -1.3037188626660894e+00 2.4545068375284804e-01 0 0 0
53 1 7.0615400935630825e+00 -2.3030534433123771e-02 1.6054831353105969e+00 0 0 0
50 1 5.7383720524412141e+00 1.3620928987280632e+00 1.1253176142696039e-01 0 0 0
16 1 8.5162249043243481e+00 -1.3910184353415009e+00 2.8789081328526644e-01 0 0 0
1009 1 4.3712868372501603e+00 -5.3212449564238113e+00 4.2232828094085866e+00 0 0 0
58 1 1.1218446621751403e+01 1.3337655955170464e+00 2.4406210442610443e-01 0 0 0
24 1 1.3966288577752593e+01 -1.5225512610767744e+00 2.4272872595713776e-01 0 0 0
61 1 1.2492800227035314e+01 -1.0575470889648463e-01 1.6779564162654768e+00 0 0 0
66 1 1.6635433878132329e+01 1.2375282788956679e+00 2.4580018634169529e-01 0 0 0
1001 1 -8.0681540790733497e-01 -5.4459187427681002e+00 4.3028156394534882e+00 0 0 0
69 1 1.7962622078758017e+01 -1.9214069678614759e-01 1.4645369152701910e+00 0 0 0
32 1 1.9337062762620896e+01 -1.4231410339083406e+00 2.1270137700305358e-01 0 0 0
37 1 2.3565059922208658e+01 -5.4385410465911264e+00 1.7511587602929524e+00 0 0 0
77 1 2.3326109183033978e+01 -4.1685178200285271e-02 1.5967524452346560e+00 0 0 0
40 1 2.4732328935359735e+01 -1.4672248224459510e+00 3.7145255101730457e-01 0 0 0
42 1 2.4570590556890975e-01 1.4109903857326174e+00 2.8275252230952275e-01 0 0 0
33 1 2.0699855835623861e+01 -5.4217289094718240e+00 -9.9532124657007914e-01 0 0 0
51 1 4.3780764436298529e+00 2.7164824736933593e+00 1.5768654757884919e+00 0 0 0
48 1 2.9745404134683109e+00 4.1410838310031153e+00 2.2879123429974696e-01 0 0 0
56 1 8.5021026086625717e+00 3.8515382631065735e+00 3.2950091243632862e-01 0 0 0
59 1 9.8040059899289300e+00 2.5891381097207122e+00 1.7301020564585041e+00 0 0 0
64 1 1.3874318042152252e+01 3.9429485115806635e+00 2.4911365904259358e-01 0 0 0
67 1 1.5276097102252942e+01 2.4723564925586978e+00 1.6209644469265687e+00 0 0 0
72 1 1.9279393391851205e+01 3.9728369990233499e+00 3.9316869802199711e-01 0 0 0
71 1 1.8006771929381213e+01 2.7453864212216983e+00 -1.0703013377952495e+00 0 0 0
74 1 2.1973497265861162e+01 1.3240530822993291e+00 2.8776319451445037e-01 0 0 0
75 1 2.0697760298772405e+01 2.6194201631965055e+00 1.7637783199188086e+00 0 0 0
29 1 1.8001248405648298e+01 -5.4176786981175837e+00 1.6159092170083347e+00 0 0 0
80 1 2.4750271510629297e+01 3.9617814777953551e+00 1.0428068146345480e-01 0 0 0
43 1 2.5968839442710046e+01 2.5838705952189840e+00 1.5986291738340734e+00 -1 0 0
82 1 2.1032949075402790e-01 6.9061796776184448e+00 2.0538622889052155e-01 0 0 0
85 1 1.4334605022200493e+00 5.4511604386178973e+00 1.6271275606595945e+00 0 0 0
25 1 1.5269912046982439e+01 -5.4274280493164042e+00 -9.9445125765182341e-01 0 0 0
21 1 1.2544991755556719e+01 -5.5076764529804620e+00 1.6345189892521175e+00 0 0 0
91 1 4.2503064086744269e+00 8.0727919354491267e+00 1.6068435150210982e+00 0 0 0
90 1 5.6000479050089087e+00 6.7723001752036360e+00 2.6348053786244630e-01 0 0 0
93 1 7.1145571193289490e+00 5.3330410711041951e+00 1.5892267099230131e+00 0 0 0
98 1 1.1080614160479522e+01 6.6881349777644497e+00 3.0552554564565815e-01 0 0 0
101 1 1.2607920161971007e+01 5.4260880559652280e+00 1.5424498281989265e+00 0 0 0
106 1 1.6548405324598018e+01 6.6260294095070957e+00 1.1698130605949374e-01 0 0 0
13 1 7.2650395301950246e+00 -5.4506449302969031e+00 1.4915400294056966e+00 0 0 0
109 1 1.7925104780653712e+01 5.3692440891633391e+00 1.5801270388575452e+00 0 0 0
114 1 2.1843324482379057e+01 6.6041662074877729e+00 3.1363552965956237e-01 0 0 0
115 1 2.0497606706018754e+01 8.0871932773114423e+00 1.5997816052111744e+00 0 0 0
113 1 2.0511126580693261e+01 5.3178731299547763e+00 -1.0917628938368147e+00 0 0 0
117 1 2.3392423158072813e+01 5.2586376482659274e+00 1.6949323165428167e+00 0 0 0
81 1 2.6079385302525147e+01 5.4889268236694759e+00 -1.1015593772437331e+00 -1 0 0
125 1 1.5587781345694909e+00 1.0723172499847587e+01 1.4957226126439034e+00 0 0 0
88 1 2.9246447696667559e+00 9.4786558118122652e+00 1.8115223367764291e-01 0 0 0
9 1 4.4816738766126454e+00 -5.4607246704937893e+00 -9.5587321891931254e-01 0 0 0
133 1 6.8984054582095036e+00 1.0732693866286990e+01 1.7556783770034230e+00 0 0 0
99 1 9.7587515489397969e+00 8.1538905641561321e+00 1.6207860323014853e+00 0 0 0
96 1 8.3571761362171895e+00 9.4527354188926402e+00 2.3829577008064678e-01 0 0 0
5 1 1.6756038437566083e+00 -5.4547633200062364e+00 1.5032125377282761e+00 0 0 0
2112 1 1.9374256068774510e+01 9.5451265039935933e+00 1.1040540011312993e+01 0 0 0
104 1 1.3761141663758705e+01 9.4923206015302455e+00 2.0793473051536257e-01 0 0 0
141 1 1.2470652466277038e+01 1.0787927534704982e+01 1.6646969291063269e+00 0 0 0
107 1 1.5125604321481207e+01 8.0304865389617319e+00 1.4914891788589353e+00 0 0 0
2145 1 1.5121654005322277e+01 1.0955268987877785e+01 9.7907167202119556e+00 0 0 0
149 1 1.7731757020169812e+01 1.0717659468222964e+01 1.5232374645760638e+00 0 0 0
112 1 1.9197828026560565e+01 9.5162980112028706e+00 1.9612580344317324e-01 0 0 0
157 1 2.3275588270758842e+01 1.0758576839536156e+01 1.5390723385060325e+00 0 0 0
120 1 2.4755705442864254e+01 9.4994895656543896e+00 2.2549145926932310e-01 0 0 0
83 1 2.6040141287957255e+01 8.1918475359876108e+00 1.7082827069926374e+00 -1 0 0
2104 1 1.3805641176952161e+01 9.4536200541868389e+00 1.1096706749276596e+01 0 0 0
1007 1 1.6287683235230033e+00 -2.5459717275333182e+00 4.2560612548095991e+00 0 0 0
6 1 2.9330001386664200e+00 -4.0102203968922741e+00 2.8780268574255818e+00 0 0 0
1015 1 6.9670767318505424e+00 -2.8297461648518860e+00 4.3009474794700644e+00 0 0 0
1010 1 5.5449171607359169e+00 -4.0634481567256300e+00 5.7061567157173645e+00 0 0 0
14 1 8.4613996577622164e+00 -4.1742668349597780e+00 2.9657314792444627e+00 0 0 0
2121 1 2.6054922786753369e+01 1.0842052273346567e+01 9.7374913531671670e+00 -1 0 0
1018 1 1.1178358635924761e+01 -4.2006296213908962e+00 5.6113643785435823e+00 0 0 0
22 1 1.3833163514537921e+01 -4.1704312703997486e+00 3.0902533124245402e+00 0 0 0
1023 1 1.2550767777478798e+01 -2.7818626713510288e+00 4.3841746531789125e+00 0 0 0
1031 1 1.7865293796331770e+01 -2.7931291813474775e+00 4.4562115184639044e+00 0 0 0
30 1 1.9393392810736323e+01 -4.0556881382955190e+00 3.0287431286554574e+00 0 0 0
1033 1 2.0708897335031260e+01 -5.4466539370580520e+00 4.3711388822236703e+00 0 0 0
38 1 2.4884752461444215e+01 -4.0113383854095810e+00 3.0976880065660857e+00 0 0 0
1039 1 2.3439737851417032e+01 -2.5914117128722456e+00 4.3440451131540092e+00 0 0 0
4 1 2.1325356153038108e-01 -1.2571736114785417e+00 3.0923013030050983e+00 0 0 0
1042 1 1.9349740625254086e-01 1.5665408603868136e+00 5.7599086982668206e+00 0 0 0
1049 1 4.3181895063446687e+00 6.9668670981718847e-02 4.5319539729105607e+00 0 0 0
1008 1 2.8566189943273330e+00 -1.3361297310789704e+00 5.7424047454831806e+00 0 0 0
12 1 5.6172223035380755e+00 -1.3963844187536436e+00 2.9426296359326778e+00 0 0 0
54 1 8.4098872748328315e+00 1.2428024303072309e+00 3.1617119165546685e+00 0 0 0
1057 1 9.8867087348454046e+00 -9.7043760456618139e-02 4.3797319186923840e+00 0 0 0
1016 1 8.3217873186094344e+00 -1.3222151515303342e+00 5.6074755793568638e+00 0 0 0
20 1 1.1171365015689148e+01 -1.4359444039547773e+00 2.9849795183908663e+00 0 0 0
1058 1 1.1210621970565493e+01 1.3904041292065210e+00 5.7040742226360841e+00 0 0 0
1024 1 1.3912894186529178e+01 -1.4131274841359616e+00 5.7976863407943950e+00 0 0 0
1065 1 1.5244515053126802e+01 -7.3598456960018557e-02 4.3197923459453724e+00 0 0 0
28 1 1.6510955184709093e+01 -1.4209337708284488e+00 2.9228653273317886e+00 0 0 0
1073 1 2.0570795512022336e+01 -5.9488276520135745e-03 4.4314240550813881e+00 0 0 0
36 1 2.2028653358765460e+01 -1.3314943500644745e+00 3.1480157990145741e+00 0 0 0
1041 1 2.6101041154808552e+01 1.7865642765598236e-01 4.3837580557846980e+00 -1 0 0
78 1 2.4726124787448569e+01 1.3523538171254597e+00 3.0562040843772125e+00 0 0 0
44 1 1.3793200859266710e-01 4.0833694636409739e+00 3.0735565125950113e+00 0 0 0
1047 1 1.5215518103503360e+00 2.7089867307009148e+00 4.2309712006714930e+00 0 0 0
46 1 3.0652108306123380e+00 1.3532173405631533e+00 3.1385142576169436e+00 0 0 0
1048 1 2.8906671999386084e+00 3.9764913139257465e+00 5.7282236333422949e+00 0 0 0
52 1 5.8079679073067609e+00 3.9186745235904499e+00 3.0125226300230818e+00 0 0 0
1055 1 7.0048336524695589e+00 2.5963764034734074e+00 4.4325201091946065e+00 0 0 0
1056 1 8.3559846263624618e+00 4.0197360133272397e+00 5.6938728052389331e+00 0 0 0
60 1 1.1147330629330423e+01 4.0242174660059984e+00 2.9525915619761327e+00 0 0 0
62 1 1.3885356698447698e+01 1.1578757110535993e+00 2.9984631749431490e+00 0 0 0
1063 1 1.2502034034905645e+01 2.6948838466838629e+00 4.2635424645573705e+00 0 0 0
68 1 1.6571268942365361e+01 4.0061560679700516e+00 2.8532433984736705e+00 0 0 0
1071 1 1.8014266126100939e+01 2.8086911338725651e+00 4.2894034335943250e+00 0 0 0
70 1 1.9299090071609363e+01 1.3005171248113354e+00 2.9218605136657412e+00 0 0 0
76 1 2.1946786981507650e+01 4.0848684168038991e+00 3.0255222407133595e+00 0 0 0
1079 1 2.3336604932566839e+01 2.7922180870223539e+00 4.3585714921515537e+00 0 0 0
1087 1 1.5917711340703622e+00 8.2207850650124907e+00 4.2932110649726747e+00 0 0 0
1089 1 4.2853058639409971e+00 5.1896381847404731e+00 4.2489362717880699e+00 0 0 0
86 1 3.0027087420763672e+00 6.6403319051436513e+00 3.0142582980411481e+00 0 0 0
94 1 8.3826451188543967e+00 6.8930028617063552e+00 2.9192518045898259e+00 0 0 0
1097 1 9.7580093349877348e+00 5.4308645044202226e+00 4.4381414310966525e+00 0 0 0
1103 1 1.2481161028143758e+01 8.0349459534044918e+00 4.2444497081843826e+00 0 0 0
102 1 1.3906796274395145e+01 6.6866991378085681e+00 2.8766888202730048e+00 0 0 0
1105 1 1.5232568037824748e+01 5.4287803917469084e+00 4.2598737353628211e+00 0 0 0
110 1 1.9214472300817185e+01 6.7192705257009697e+00 2.9558936930027571e+00 0 0 0
1113 1 2.0624747102806182e+01 5.3697666107458488e+00 4.3659071691725577e+00 0 0 0
118 1 2.4747742781219468e+01 6.6906159179387030e+00 3.1044747749086015e+00 0 0 0
1119 1 2.3311082050071263e+01 8.1216164254912773e+00 4.2607753114961158e+00 0 0 0
1081 1 2.6060290133393213e+01 5.3923039050428034e+00 4.5342708916502623e+00 -1 0 0
84 1 1.7776154840154682e-01 9.5895861928578530e+00 2.9767361439500819e+00 0 0 0
1129 1 4.3985353304548314e+00 1.0866863788972937e+01 4.4365555606402713e+00 0 0 0
1095 1 6.9220713180322582e+00 7.9289433288768647e+00 4.3995388454406283e+00 0 0 0
92 1 5.5466144276751006e+00 9.3664886355947807e+00 3.1268585846800248e+00 0 0 0
1137 1 9.6298330115907511e+00 1.0716319498873986e+01 4.3345802608908128e+00 0 0 0
100 1 1.1073932543837065e+01 9.3477153485515494e+00 3.0807586630126917e+00 0 0 0
1145 1 1.5168936063207303e+01 1.0726235207103588e+01 4.3198337189458504e+00 0 0 0
108 1 1.6458680085236661e+01 9.2957403453191940e+00 2.9473101397557775e+00 0 0 0
1111 1 1.7824793478352486e+01 8.0755767253728674e+00 4.4600994463985870e+00 0 0 0
1153 1 2.0508177748501630e+01 1.0874533088989935e+01 4.4062077035778255e+00 0 0 0
116 1 2.1813316400589610e+01 9.5407339753976199e+00 2.8734078445059437e+00 0 0 0
1120 1 2.4553098968215881e+01 9.3819204842887682e+00 5.6987546255075019e+00 0 0 0
1121 1 2.5933344683180973e+01 1.0766630460533907e+01 4.3860769756932205e+00 -1 0 0
1002 1 4.2905485120918069e-01 -3.9969049848089098e+00 5.8162033418865260e+00 0 0 0
1011 1 4.1488237012961289e+00 -2.6898372615954442e+00 7.1724830356620268e+00 0 0 0
1006 1 2.9179594649627107e+00 -4.1273776089081382e+00 8.4836093121238090e+00 0 0 0
1013 1 7.0495449600996460e+00 -5.4225099884321271e+00 6.8401194318422114e+00 0 0 0
1019 1 9.6700000919130158e+00 -2.7812929462977021e+00 6.9736888743339538e+00 0 0 0
1014 1 8.1700321123469273e+00 -4.0698584383559906e+00 8.3138950414414214e+00 0 0 0
2120 1 2.4701682512231816e+01 9.5891887766684594e+00 1.1123012971339733e+01 0 0 0
1022 1 1.3941391857558953e+01 -4.1382863165930903e+00 8.2289299140034355e+00 0 0 0
1027 1 1.5254375931742155e+01 -2.7238071498970560e+00 7.0964034011396517e+00 0 0 0
1026 1 1.6481930667600107e+01 -4.2420381281259614e+00 5.7727299354853745e+00 0 0 0
1030 1 1.9386572361250575e+01 -4.0952203036753412e+00 8.4875013641230090e+00 0 0 0
1034 1 2.2148979752705436e+01 -4.0947177460827557e+00 5.6834568517061239e+00 0 0 0
1035 1 2.0622006506701801e+01 -2.7552384576785558e+00 6.9253459670794433e+00 0 0 0
1038 1 2.4809591115735305e+01 -4.1554152532883837e+00 8.5297894801394438e+00 0 0 0
1003 1 -1.0517565322480777e+00 -2.6877266938060878e+00 7.1349323426160289e+00 0 0 0
1045 1 1.6377093095079889e+00 5.3055949289747509e-02 7.0140271649466497e+00 0 0 0
1004 1 2.6481325785780990e-01 -1.2258485828245438e+00 8.3283982483407009e+00 0 0 0
1053 1 7.0535369418133680e+00 -2.0239125845489789e-02 7.1435665480471089e+00 0 0 0
1012 1 5.7064367308088597e+00 -1.4620899631357380e+00 8.5187859956803358e+00 0 0 0
1020 1 1.1109740230569610e+01 -1.6056020200303096e+00 8.3481215507691626e+00 0 0 0
1061 1 1.2495582112341379e+01 -1.0318340804428859e-01 7.1217190028520889e+00 0 0 0
1028 1 1.6625208426804672e+01 -1.3772115752022029e+00 8.3412548084939786e+00 0 0 0
1069 1 1.7849773933064352e+01 1.6884065508235060e-01 6.9958046455878273e+00 0 0 0
1032 1 1.9178274373041926e+01 -1.3539916048857374e+00 5.7530522728620079e+00 0 0 0
1074 1 2.1952151732397986e+01 1.4754603805675988e+00 5.7006327497173688e+00 0 0 0
1036 1 2.2056316170882653e+01 -1.3811639009155843e+00 8.2621369240124398e+00 0 0 0
1077 1 2.3402059216991209e+01 1.4308542555314280e-01 7.0344029949265092e+00 0 0 0
1040 1 2.4802686836650601e+01 -1.2558107865887995e+00 5.6882419570382456e+00 0 0 0
1044 1 4.3818017259318620e-01 4.1513014257962180e+00 8.5798583407609428e+00 0 0 0
1051 1 4.3265268643014068e+00 2.6975124187161486e+00 7.0850936390276162e+00 0 0 0
1046 1 3.0120601242767271e+00 1.2552511330311562e+00 8.4682605847905528e+00 0 0 0
1050 1 5.7390262028909520e+00 1.3475450630601060e+00 5.8273514583154267e+00 0 0 0
1052 1 5.6331510430220950e+00 4.0365834669023828e+00 8.4693507573354463e+00 0 0 0
1059 1 9.8194451907822859e+00 2.6444038020268326e+00 7.0608361914294848e+00 0 0 0
1054 1 8.3942513407870099e+00 1.4548267352925219e+00 8.4423097111205934e+00 0 0 0
1060 1 1.1226591881862506e+01 3.8676739126869180e+00 8.4405441039837257e+00 0 0 0
1064 1 1.3857640823205188e+01 4.0282988209060493e+00 5.5429886105242163e+00 0 0 0
1062 1 1.3883369718874883e+01 1.1130175185049926e+00 8.4143228142482940e+00 0 0 0
1066 1 1.6435143016868995e+01 1.5232030218700285e+00 5.5477985660139328e+00 0 0 0
1067 1 1.5029813678000385e+01 2.6633461823317672e+00 7.0735429945208370e+00 0 0 0
1068 1 1.6533949203854011e+01 3.9931606372918553e+00 8.3943054702495452e+00 0 0 0
1072 1 1.9215173776299643e+01 4.1289649416886194e+00 5.7138814939267091e+00 0 0 0
1070 1 1.9404966324847376e+01 1.3778330514502206e+00 8.4065723365904397e+00 0 0 0
1075 1 2.0526977570575522e+01 2.8172254942624346e+00 7.0368828428597494e+00 0 0 0
1076 1 2.2024451536558647e+01 4.0879880869428691e+00 8.4392452048209456e+00 0 0 0
1080 1 2.4691744955627261e+01 4.1547833769554625e+00 5.9222834673685760e+00 0 0 0
1078 1 2.4758998655216939e+01 1.4966900825075740e+00 8.4219463670065107e+00 0 0 0
1043 1 -1.0975027829261208e+00 2.9390732467894276e+00 7.2263144462381312e+00 0 0 0
1082 1 3.9915957264646895e-01 6.7534467006849264e+00 5.7030074961944450e+00 0 0 0
1085 1 1.6608148591800256e+00 5.4189237516322617e+00 7.0323756100467723e+00 0 0 0
1091 1 4.3922657847791369e+00 8.1387324257875768e+00 7.0301118947753727e+00 0 0 0
1086 1 2.9646188646981937e+00 6.8166238565409101e+00 8.4635526829585110e+00 0 0 0
1090 1 5.6443709788169683e+00 6.5032595043190735e+00 5.7266593884435810e+00 0 0 0
1093 1 6.9711136464655281e+00 5.4448414696280727e+00 7.1685097380654055e+00 0 0 0
1099 1 9.8182926769458838e+00 7.9551490025721021e+00 7.0860757494606617e+00 0 0 0
1094 1 8.4331042757225720e+00 6.6816592916853548e+00 8.3024686275564346e+00 0 0 0
1098 1 1.1239329900190050e+01 6.7696973340546256e+00 5.5794512223144173e+00 0 0 0
1101 1 1.2517236789004162e+01 5.3535706078078444e+00 6.8652695398921599e+00 0 0 0
1102 1 1.3871356727772760e+01 6.6258558371564886e+00 8.3562161767050256e+00 0 0 0
1106 1 1.6570583849651964e+01 6.6795534202584443e+00 5.6850422052546969e+00 0 0 0
1109 1 1.7940303572619101e+01 5.3641513402483740e+00 7.1609169451404258e+00 0 0 0
1110 1 1.9286267493482754e+01 6.6626891495468472e+00 8.5134581943034195e+00 0 0 0
1114 1 2.1894791949160759e+01 6.8002860627831927e+00 5.7054683864753573e+00 0 0 0
1117 1 2.3359792617415760e+01 5.4765934694832223e+00 7.1389949210431558e+00 0 0 0
1118 1 2.4721849374766915e+01 6.6445442319775179e+00 8.3456552722660078e+00 0 0 0
1083 1 -1.0786249620902417e+00 7.9954341734760392e+00 6.9384452949234001e+00 0 0 0
1125 1 1.5546141581590645e+00 1.0735104568909540e+01 7.1213708732090568e+00 0 0 0
1084 1 1.0273507830042129e-01 9.4597497298236384e+00 8.4177699914941897e+00 0 0 0
1088 1 3.0061635484857376e+00 9.4007743787263429e+00 5.7462652712106577e+00 0 0 0
1133 1 7.0599295939283913e+00 1.0758166528727040e+01 7.0235915952217001e+00 0 0 0
1092 1 5.6577519073009643e+00 9.4266536995168408e+00 8.4215651797404174e+00 0 0 0
1096 1 8.3284256409806652e+00 9.3504599718552814e+00 5.7539474359566745e+00 0 0 0
1141 1 1.2572127951705854e+01 1.0638826410828548e+01 7.1060603635395072e+00 0 0 0
1100 1 1.1113048572682530e+01 9.3502023388350377e+00 8.4113233604492077e+00 0 0 0
1104 1 1.3796097101851480e+01 9.4564074077270810e+00 5.7096503787590844e+00 0 0 0
1107 1 1.5151828754661098e+01 8.0276027757259900e+00 6.9222966791178129e+00 0 0 0
1108 1 1.6443291344505457e+01 9.4079247736303397e+00 8.5088382217411436e+00 0 0 0
1149 1 1.7742904406654702e+01 1.0766947996592615e+01 7.1709343188288965e+00 0 0 0
1112 1 1.9228926903386107e+01 9.4242722887634720e+00 5.8067373638964490e+00 0 0 0
1115 1 2.0624165155072500e+01 8.1094344739000537e+00 7.1637757939285773e+00 0 0 0
1116 1 2.1898414545642286e+01 9.5035471738715902e+00 8.4113468892054506e+00 0 0 0
1157 1 2.3282114255525453e+01 1.0938844538277976e+01 7.1190099975830767e+00 0 0 0
2007 1 1.5974948130660174e+00 -2.6221486909414882e+00 9.6862705412783292e+00 0 0 0
2002 1 3.6553667318839533e-01 -4.1344532554467621e+00 1.1105479440679822e+01 0 0 0
2153 1 2.0777522827491044e+01 1.0985903304091373e+01 9.7096232396050688e+00 0 0 0
2003 1 2.6088179261969785e+01 -2.7168356838974939e+00 1.2375672254158424e+01 -1 0 0
2103 1 1.2583258041934746e+01 7.9703203957715179e+00 9.8185145947888959e+00 0 0 0
2015 1 7.0890678095970125e+00 -2.8558586861994941e+00 9.9216251525086694e+00 0 0 0
2010 1 5.6253533883553395e+00 -4.1225616015351880e+00 1.1200935527228426e+01 0 0 0
2017 1 9.7458113343322683e+00 -5.4387674787669704e+00 9.5649360128751049e+00 0 0 0
2023 1 1.2580145572341044e+01 -2.8188944574928048e+00 9.6949528898941182e+00 0 0 0
2018 1 1.1032554647265059e+01 -4.0213173146453860e+00 1.1069766772516685e+01 0 0 0
2025 1 1.5122733104070029e+01 -5.4143187514863040e+00 9.6992384867374586e+00 0 0 0
2026 1 1.6689482259743151e+01 -4.2341592952723515e+00 1.1029350990681785e+01 0 0 0
2031 1 1.8041443830389003e+01 -2.6904610987438460e+00 9.7669569565165855e+00 0 0 0
2034 1 2.2134525538369711e+01 -4.1267266651546199e+00 1.1122872746549403e+01 0 0 0
2039 1 2.3444100001629497e+01 -2.6496979992357614e+00 9.7215862382698113e+00 0 0 0
2042 1 2.9998023558162040e-01 1.1963256194232754e+00 1.1127861473491668e+01 0 0 0
2041 1 2.6062988948363014e+01 9.7212896501886276e-02 9.6905447691572171e+00 -1 0 0
2049 1 4.4098831028887568e+00 -7.6702994295965554e-02 9.8734381739670294e+00 0 0 0
2008 1 2.8503695380747605e+00 -1.5251131564670588e+00 1.1195705130452632e+01 0 0 0
2057 1 9.7334246861490836e+00 -8.2979595063838008e-02 9.5896097532683928e+00 0 0 0
2016 1 8.3999719559088355e+00 -1.3631283900538529e+00 1.0971879147401040e+01 0 0 0
2024 1 1.3861936575487315e+01 -1.3640379214995195e+00 1.1158547131259295e+01 0 0 0
2065 1 1.5273205213657338e+01 -1.0797589899124199e-01 9.8603805981984465e+00 0 0 0
2066 1 1.6531244855680203e+01 1.3556056861434624e+00 1.0996500097993311e+01 0 0 0
2032 1 1.9463325778734148e+01 -1.3797491152590440e+00 1.1168160155389533e+01 0 0 0
2073 1 2.0828930886438695e+01 -2.8224511012106081e-02 9.8012684463189323e+00 0 0 0
2040 1 2.4735843372960076e+01 -1.2435564789922922e+00 1.1102775961251458e+01 0 0 0
2047 1 1.7215545788873363e+00 2.6467269009452110e+00 9.9710847621012721e+00 0 0 0
2096 1 8.4450969059344985e+00 9.4681189618292283e+00 1.1094724844624761e+01 0 0 0
2048 1 3.0862695590457876e+00 4.0865599617574437e+00 1.1150489881460230e+01 0 0 0
2055 1 6.9583773355200771e+00 2.7598419419354534e+00 9.7755240738553280e+00 0 0 0
2050 1 5.6418573498031304e+00 1.4223519848539699e+00 1.1157123335257575e+01 0 0 0
2056 1 8.5244902260658186e+00 3.9955371342397448e+00 1.1068708360229660e+01 0 0 0
2137 1 9.7573328635747512e+00 1.0924590528609379e+01 9.7073266879687612e+00 0 0 0
2058 1 1.1052887844939352e+01 1.2601640248572032e+00 1.1163056881419269e+01 0 0 0
2064 1 1.4077645456120955e+01 3.8390552528047310e+00 1.1105344753394732e+01 0 0 0
2063 1 1.2510254788860601e+01 2.5178108414345726e+00 9.7839131526877754e+00 0 0 0
2071 1 1.7966884683468038e+01 2.6721169604033799e+00 9.8001834913441357e+00 0 0 0
2072 1 1.9249426842204290e+01 4.0964894055907086e+00 1.1190669213782037e+01 0 0 0
2074 1 2.2173540886424718e+01 1.3699084273396558e+00 1.1281087592228470e+01 0 0 0
2079 1 2.3382423586237937e+01 2.8534058952116066e+00 9.7985072809936469e+00 0 0 0
2080 1 2.4842638619748534e+01 4.0784999177516585e+00 1.1112100916634324e+01 0 0 0
2082 1 2.8517848680307728e-01 6.7927569743243179e+00 1.1093630338156188e+01 0 0 0
2081 1 -1.0393439529002944e+00 5.4871405010735526e+00 9.7516942443548018e+00 0 0 0
2089 1 4.3220462279014766e+00 5.4690068964662073e+00 9.7696389720282220e+00 0 0 0
2090 1 5.6831272559084880e+00 6.7105940459056965e+00 1.1136145941364305e+01 0 0 0
2097 1 9.7716415367904226e+00 5.3618758879169164e+00 9.6287185922776786e+00 0 0 0
2098 1 1.1154380026556042e+01 6.6549043491113533e+00 1.1106144103654962e+01 0 0 0
2105 1 1.5228178618991063e+01 5.2052834687269698e+00 9.7670872407752949e+00 0 0 0
2106 1 1.6446053748067989e+01 6.6496552000180973e+00 1.1005368201488015e+01 0 0 0
2111 1 1.7897651361776617e+01 8.1110406492569851e+00 9.8544274469010169e+00 0 0 0
2113 1 2.0712813307990984e+01 5.4223915642810931e+00 9.8530136790740865e+00 0 0 0
2114 1 2.2084961198279530e+01 6.9063357724521355e+00 1.1184420796028265e+01 0 0 0
2119 1 2.3497898100760892e+01 8.1516972465135709e+00 9.6400096099362411e+00 0 0 0
2117 1 2.3397828995490585e+01 5.4084955225876161e+00 1.2458310038422349e+01 0 0 0
2087 1 1.6133174024996324e+00 8.1906684271336534e+00 9.7039385607486874e+00 0 0 0
2129 1 4.2478484257040954e+00 1.0767892939321298e+01 9.7933269185053327e+00 0 0 0
2088 1 2.8456549147656505e+00 9.4394929079065690e+00 1.1262145421015806e+01 0 0 0
2095 1 7.0175011844530877e+00 8.0151375292320992e+00 9.7365631053291430e+00 0 0 0
2019 1 9.6572490852209008e+00 -2.6174635354377722e+00 1.2448665129555067e+01 0 0 0
2027 1 1.5375965348173391e+01 -2.7037534559566962e+00 1.2424272404647231e+01 0 0 0
2035 1 2.0689699640140145e+01 -2.8566322321422235e+00 1.2457417555859623e+01 0 0 0
2045 1 1.5667352307676314e+00 -2.0156849149832720e-01 1.2449640390096707e+01 0 0 0
2053 1 7.0248987326483210e+00 -3.7475485340237133e-02 1.2433315626368035e+01 0 0 0
2061 1 1.2478878046292198e+01 3.6696849318816858e-02 1.2485274542601006e+01 0 0 0
2069 1 1.7951491508420741e+01 -4.0926015737842179e-02 1.2458898169874965e+01 0 0 0
2075 1 2.0651413951443732e+01 2.6724377444865510e+00 1.2475436728104084e+01 0 0 0
2085 1 1.5728564868025330e+00 5.3677060399638146e+00 1.2354922038308519e+01 0 0 0
2093 1 7.1486233615580623e+00 5.4317697664724900e+00 1.2396306023052052e+01 0 0 0
2099 1 9.8636717929515463e+00 8.0281421371273254e+00 1.2418389704622879e+01 0 0 0
2101 1 1.2593306462508737e+01 5.3282195296236790e+00 1.2467503384423846e+01 0 0 0
2109 1 1.7749722445013042e+01 5.3566330494797185e+00 1.2485631359652375e+01 0 0 0
2133 1 6.8984043760338070e+00 1.0753468968247748e+01 1.2364522929656003e+01 0 0 0
2141 1 1.2530598143208044e+01 1.0819712247028892e+01 1.2425031322547360e+01 0 0 0
2107 1 1.5147552966889098e+01 8.1339487047413943e+00 1.2466227345620201e+01 0 0 0
119 1 2.3295287985503730e+01 7.9802359549455995e+00 -1.0646933036397783e+00 0 0 0
2149 1 1.8000608170688167e+01 1.0766648902612776e+01 1.2440758139210679e+01 0 0 0
2083 1 2.6050995655701769e+01 8.1288606592303250e+00 1.2452057263304196e+01 -1 0 0
2157 1 2.3270234905230915e+01 1.1005555515697425e+01 1.2489194080352082e+01 0 0 0
95 1 7.0975662130156074e+00 8.0920963903074288e+00 -1.0616248447801446e+00 0 0 0
3007 1 1.4615259052758840e+00 -2.8902968459739173e+00 1.5231341722851894e+01 0 0 0
3001 1 -1.0083458562213046e+00 -5.3515517281894276e+00 1.5197022139024913e+01 0 0 0
2006 1 2.9244369640455230e+00 -4.2371833724246883e+00 1.3866374704678408e+01 0 0 0
3015 1 7.0128741427073917e+00 -2.6377511317323883e+00 1.5268916669578283e+01 0 0 0
2014 1 8.5209698166896111e+00 -4.0263716152143454e+00 1.3937813486207121e+01 0 0 0
4033 1 2.0731968511822462e+01 -5.4496849703972998e+00 2.0723446593171641e+01 0 0 0
4157 1 2.3296786648171032e+01 1.0688547617924772e+01 2.3307022039051677e+01 0 0 0
2022 1 1.3926276639649299e+01 -4.0635123702464302e+00 1.3726943034058102e+01 0 0 0
3023 1 1.2559791293111354e+01 -2.8078577186208404e+00 1.5078088833079800e+01 0 0 0
3037 1 2.3463887265157922e+01 -5.4245244080130988e+00 1.8011505764268517e+01 0 0 0
2030 1 1.9332028122396341e+01 -4.2229319208144647e+00 1.3864536507603406e+01 0 0 0
3031 1 1.7902980123103962e+01 -2.6997937294032681e+00 1.5201434895753570e+01 0 0 0
4029 1 1.7998716398495734e+01 -5.3868721226995433e+00 2.3401592119279744e+01 0 0 0
2037 1 2.3504593544068168e+01 -5.4825587990806905e+00 1.2508928821648546e+01 0 0 0
2038 1 2.4909733525201716e+01 -4.1262761181205265e+00 1.3686036742189303e+01 0 0 0
3039 1 2.3524833530554780e+01 -2.7484925238853695e+00 1.5192268025675958e+01 0 0 0
3029 1 1.8080395650942403e+01 -5.3533675394770910e+00 1.7931546231967026e+01 0 0 0
2004 1 1.0511273083854152e-01 -1.5033930807666804e+00 1.3845896835819417e+01 0 0 0
3041 1 -1.0332402773071614e+00 5.4232172905156716e-02 1.5325811306429152e+01 0 0 0
2046 1 2.9138000472131056e+00 1.2907136901457039e+00 1.3749680613903827e+01 0 0 0
3049 1 4.2556501235937993e+00 -1.3207308473087506e-01 1.5207380365449504e+01 0 0 0
2012 1 5.6902175866806282e+00 -1.4009233890052422e+00 1.3846276388766290e+01 0 0 0
3033 1 2.0880137592914934e+01 -5.3974522058560979e+00 1.5344462103890940e+01 0 0 0
2054 1 8.3867014441090202e+00 1.2974108158393183e+00 1.3814807671239377e+01 0 0 0
3057 1 9.8222567852155258e+00 -2.1288380524233690e-02 1.5104645907807154e+01 0 0 0
2020 1 1.1125581345050115e+01 -1.3715704480218271e+00 1.3821221730329308e+01 0 0 0
2062 1 1.3840496667768926e+01 1.3356289226206366e+00 1.3929654834822761e+01 0 0 0
3025 1 1.5241996465631074e+01 -5.4974427653305042e+00 1.5061798222376979e+01 0 0 0
2028 1 1.6649710920783587e+01 -1.3323554834192717e+00 1.3874634149262818e+01 0 0 0
3065 1 1.5170827238691862e+01 2.8280113164787839e-02 1.5226756914297271e+01 0 0 0
4037 1 2.3338619672960789e+01 -5.5136036323906694e+00 2.3480305519698309e+01 0 0 0
2070 1 1.9321645708243089e+01 1.3076802618566605e+00 1.3884806433273640e+01 0 0 0
2036 1 2.2024024051079326e+01 -1.4673671368970840e+00 1.3851330012050653e+01 0 0 0
3073 1 2.0738858026649044e+01 -2.8889334930895072e-02 1.5203131349069102e+01 0 0 0
2077 1 2.3483724627648467e+01 -5.5832666332342261e-02 1.2625405891288704e+01 0 0 0
2044 1 1.8114654035519892e-01 4.0102279739425510e+00 1.3783447879165378e+01 0 0 0
3047 1 1.7317842217107580e+00 2.6792377787589956e+00 1.5293181071732000e+01 0 0 0
2051 1 4.3359671625287666e+00 2.6834977729961773e+00 1.2583847773786678e+01 0 0 0
2052 1 5.7288290252494427e+00 4.1534557914025321e+00 1.3736026402810353e+01 0 0 0
3055 1 7.0082609123904849e+00 2.7901891861568933e+00 1.5057617451548600e+01 0 0 0
2060 1 1.1246252336328981e+01 4.1019808715985997e+00 1.3838311587898168e+01 0 0 0
3063 1 1.2512853149387041e+01 2.7064661869575213e+00 1.5246774407686679e+01 0 0 0
2067 1 1.5200524686919112e+01 2.5653772115858171e+00 1.2541683600726955e+01 0 0 0
2068 1 1.6457428667323903e+01 3.8746855740063602e+00 1.3791738288179916e+01 0 0 0