LAMMPS data file via write_data, version 30 Jul 2016, timestep = 50000

5000 atoms
1 atom types

-1.1037168688014471e+00 2.6103716868801385e+01 xlo xhi
-5.5185843440072304e+00 1.3051858434400725e+02 ylo yhi
-1.1037168688014471e+00 2.6103716868801385e+01 zlo zhi

Masses

1 28.0855

Atoms # atomic

2 1 3.5258245150349132e-01 -4.0978089637256865e+00 2.4556652796990344e-01 0 0 0
3 1 -9.2084542269208125e-01 -2.6955417217145685e+00 1.7427279756087106e+00 0 0 0
2009 1 4.4366474716815594e+00 -5.4808051576636103e+00 9.8542763687768815e+00 0 0 0
11 1 4.2805929087200907e+00 -2.7365553628127621e+00 1.6361993861958786e+00 0 0 0
10 1 5.8600667500678147e+00 -3.9703715453071795e+00 1.9594129846840147e-01 0 0 0
1005 1 1.7200081455189484e+00 -5.4835115546648296e+00 7.1853752589734654e+00 0 0 0
19 1 9.9573525160335521e+00 -2.6132825161805182e+00 1.6447316248689985e+00 0 0 0
1009 1 4.3971511868949031e+00 -5.4304552576935237e+00 4.2281308080579514e+00 0 0 0
18 1 1.1192243489818706e+01 -4.1906264174593320e+00 3.9691237710416327e-01 0 0 0
23 1 1.2576647508796370e+01 -2.9303240092517666e+00 -1.0318418979470971e+00 0 0 0
27 1 1.5108528738073684e+01 -2.8836406480757115e+00 1.6486814840312149e+00 0 0 0
26 1 1.6664110807865612e+01 -4.0024379880144121e+00 3.6009246961204666e-01 0 0 0
31 1 1.7972748963278022e+01 -2.7586345475373357e+00 -1.0730263970666367e+00 0 0 0
34 1 2.2063211355331870e+01 -3.8688256448580267e+00 2.7924064727798381e-01 0 0 0
35 1 2.0732937084033207e+01 -2.5277540857645029e+00 1.7829172058643530e+00 0 0 0
1001 1 -1.0082388998335405e+00 -5.4815391939885103e+00 4.4317088180227815e+00 0 0 0
41 1 -1.0192077042858199e+00 -4.7048878093772395e-02 -9.9862588496995763e-01 0 0 0
45 1 1.6209528989341100e+00 2.3729253195635139e-02 1.5362758337405433e+00 0 0 0
37 1 2.3603265708942313e+01 -5.3225475121845705e+00 1.6357137826421018e+00 0 0 0
8 1 2.9819221951518511e+00 -1.3253530422958584e+00 2.4885119053713303e-01 0 0 0
53 1 6.9709815177188439e+00 -2.8946227822094567e-02 1.7208514490782383e+00 0 0 0
50 1 5.7445030905756855e+00 1.3190307696003798e+00 1.7701446488122052e-01 0 0 0
16 1 8.4345730824809682e+00 -1.4181816012930164e+00 3.6503794027145081e-01 0 0 0
57 1 9.8309400152443800e+00 -1.1988210243274143e-01 -1.0342992158139517e+00 0 0 0
58 1 1.1318746366729918e+01 1.2462120572131350e+00 1.5148260416369602e-01 0 0 0
24 1 1.3936912448512713e+01 -1.5152460051958490e+00 1.6220327428203235e-01 0 0 0
61 1 1.2597503447486440e+01 -2.2882222414261194e-01 1.5957211854527995e+00 0 0 0
66 1 1.6580242818078773e+01 1.3164798256758230e+00 2.7267498540963708e-01 0 0 0
65 1 1.5232210860331222e+01 3.2527996700330096e-02 -1.0687894008147656e+00 0 0 0
69 1 1.7907607348637470e+01 -6.8053927853291202e-02 1.4840934081647068e+00 0 0 0
32 1 1.9351657785994856e+01 -1.3812342157286985e+00 1.0840157284858619e-01 0 0 0
73 1 2.0618735523859876e+01 6.5331513115976889e-02 -1.0899263443609835e+00 0 0 0
77 1 2.3532271985545322e+01 2.0345468486253741e-02 1.6775260466014188e+00 0 0 0
40 1 2.4765265691948098e+01 -1.5209424258967352e+00 3.5528558050542736e-01 0 0 0
42 1 2.1904700660845541e-01 1.4379934951248303e+00 1.9985766539625704e-01 0 0 0
33 1 2.0732069926101499e+01 -5.4882480257621751e+00 -1.0252166058738108e+00 0 0 0
51 1 4.4424912601725630e+00 2.6671448552580603e+00 1.5582562907792272e+00 0 0 0
48 1 3.0248228071054504e+00 4.0632550280974904e+00 2.0032026303765293e-01 0 0 0
56 1 8.6723717586337532e+00 3.9750192705051899e+00 4.0917111584567023e-01 0 0 0
59 1 9.9106211567954929e+00 2.5226588702386312e+00 1.6555793996089463e+00 0 0 0
64 1 1.3856705454856520e+01 4.0257034110995580e+00 2.2478825154354806e-01 0 0 0
67 1 1.5211170798768951e+01 2.5992665195745168e+00 1.5475684639027090e+00 0 0 0
72 1 1.9349881618193567e+01 4.0060766421845351e+00 4.3993401191973813e-01 0 0 0
71 1 1.8004884827743400e+01 2.7906583886134468e+00 -1.0150618518537500e+00 0 0 0
74 1 2.2004565248717608e+01 1.2417571326534456e+00 3.4380559962984997e-01 0 0 0
75 1 2.0729490262084685e+01 2.7440764326305125e+00 1.6795548824868807e+00 0 0 0
79 1 2.3342077647969678e+01 2.5785580757868427e+00 -1.0743410407535812e+00 0 0 0
80 1 2.4708321254170563e+01 4.0344668706591662e+00 1.0067622607857486e-01 0 0 0
43 1 2.5943789615767603e+01 2.6233840070122874e+00 1.5372656377992280e+00 -1 0 0
82 1 2.5751285685105268e-01 6.8527707380291067e+00 3.6555038824415403e-01 0 0 0
85 1 1.6066363453355017e+00 5.4500846957413467e+00 1.5697453133520778e+00 0 0 0
29 1 1.8061346768302105e+01 -5.4059891845535333e+00 1.6211839915659243e+00 0 0 0
25 1 1.5327234979248864e+01 -5.4784915978281390e+00 -9.1016126821402166e-01 0 0 0
91 1 4.2424371631315827e+00 8.0692206035776390e+00 1.6175980359387634e+00 0 0 0
90 1 5.6223997145891111e+00 6.6952149311115852e+00 2.7669644750032674e-01 0 0 0
93 1 6.9637595203597762e+00 5.3216386585620912e+00 1.6830044724803073e+00 0 0 0
98 1 1.1111171565676980e+01 6.7693659168157954e+00 3.8643427029798366e-01 0 0 0
101 1 1.2626159091241348e+01 5.3556364507201248e+00 1.6643420506289004e+00 0 0 0
106 1 1.6536352774003198e+01 6.8271300135165420e+00 2.3601379088506569e-01 0 0 0
21 1 1.2491752574232439e+01 -5.5089285936123247e+00 1.6726423966746824e+00 0 0 0
109 1 1.7970948409759064e+01 5.5071599513477736e+00 1.6147301893675876e+00 0 0 0
114 1 2.2012834233503050e+01 6.7118487222469199e+00 2.1222078908025388e-01 0 0 0
115 1 2.0638231778426729e+01 8.0862695602989305e+00 1.4676312896394619e+00 0 0 0
113 1 2.0706157545422116e+01 5.2876376709463377e+00 -1.0671417177744487e+00 0 0 0
117 1 2.3348625102247130e+01 5.3853171450769910e+00 1.5968750877196087e+00 0 0 0
13 1 7.2508684646456310e+00 -5.3648235669848816e+00 1.6000043761439124e+00 0 0 0
125 1 1.5500794046362385e+00 1.0850872110748366e+01 1.6052667406897554e+00 0 0 0
88 1 3.0242707597835228e+00 9.5648413031742781e+00 2.8201156363647967e-01 0 0 0
1 1 -9.5960326217847169e-01 -5.4532523283405112e+00 -1.0838042225408557e+00 0 0 0
133 1 6.9722750954763679e+00 1.0672431501200423e+01 1.7802715434340750e+00 0 0 0
99 1 9.6536070093568327e+00 8.1154886701899116e+00 1.6281045189594683e+00 0 0 0
96 1 8.3107184453107159e+00 9.4472347156242975e+00 2.0665391161640936e-01 0 0 0
5 1 1.6315173016352678e+00 -5.3682631167068280e+00 1.6338238541780161e+00 0 0 0
103 1 1.2361884459813465e+01 8.0320030447192394e+00 -1.0996468402210642e+00 0 0 0
104 1 1.3686551899773269e+01 9.4564074786357164e+00 1.8403610657777206e-01 0 0 0
141 1 1.2504503988952482e+01 1.0755792826366193e+01 1.6201651276043474e+00 0 0 0
107 1 1.5082376260831726e+01 8.0714471422200287e+00 1.5012719705032458e+00 0 0 0
145 1 1.5128235159150876e+01 1.0889433113397031e+01 -1.0788716215329108e+00 0 0 0
149 1 1.7761656861373133e+01 1.0724626142643611e+01 1.5415694769413673e+00 0 0 0
112 1 1.9213986036988615e+01 9.5731462695898788e+00 1.4696308540419314e-01 0 0 0
157 1 2.3282946159620447e+01 1.0978311320950498e+01 1.5353626911870750e+00 0 0 0
120 1 2.4711117134122638e+01 9.5855395872355977e+00 2.1643181699055572e-01 0 0 0
83 1 2.5957273999088144e+01 8.2745590832195557e+00 1.6740418741836989e+00 -1 0 0
2120 1 2.4807327276247776e+01 9.4344793498864004e+00 1.1163425136794215e+01 0 0 0
1007 1 1.5423083043558703e+00 -2.6981796245965830e+00 4.2554619126581015e+00 0 0 0
6 1 2.9682843235092533e+00 -4.0317199408887676e+00 2.9779497195811784e+00 0 0 0
1015 1 6.9861898476406372e+00 -2.7538070667509826e+00 4.3369760032028726e+00 0 0 0
1010 1 5.6696217914784066e+00 -4.0721977708577475e+00 5.8266097166353914e+00 0 0 0
14 1 8.5324818963152342e+00 -4.0247002707010848e+00 3.0529896471749169e+00 0 0 0
1017 1 9.8768887734309754e+00 -5.4601149778888294e+00 4.4139520070196614e+00 0 0 0
1018 1 1.1221168030351958e+01 -4.0051821442920987e+00 5.6935847703438949e+00 0 0 0
22 1 1.3795015451490148e+01 -4.2342162726313308e+00 3.0318557773081056e+00 0 0 0
1023 1 1.2564566626746791e+01 -2.8333321569082384e+00 4.3962160397563679e+00 0 0 0
1031 1 1.7957886878569994e+01 -2.7036963806832390e+00 4.2954189025613267e+00 0 0 0
30 1 1.9410876920305952e+01 -3.9924882327599014e+00 3.0186072264580459e+00 0 0 0
1033 1 2.0764323147272417e+01 -5.3604611300945999e+00 4.3976827128276623e+00 0 0 0
38 1 2.4949658848648056e+01 -3.9713152413504362e+00 3.0838658047663436e+00 0 0 0
1039 1 2.3450070903397076e+01 -2.5784034274319287e+00 4.3698610041130328e+00 0 0 0
4 1 2.2809627893227793e-01 -1.2097838846748408e+00 3.0319508271305757e+00 0 0 0
1042 1 3.4005929785895006e-01 1.5146725200397357e+00 5.8411117143342413e+00 0 0 0
1049 1 4.2742596441315710e+00 -4.4199309735747094e-03 4.3576219547787911e+00 0 0 0
1008 1 2.8881411822067626e+00 -1.4448357323551428e+00 5.7385253863835182e+00 0 0 0
12 1 5.5634833724695767e+00 -1.4551565707138485e+00 2.9747987184936968e+00 0 0 0
54 1 8.4529635455167274e+00 1.3354128014601503e+00 3.0867940282160165e+00 0 0 0
1057 1 9.8209620299386930e+00 -8.9506209377019932e-02 4.3242107911651617e+00 0 0 0
1016 1 8.3593455082492962e+00 -1.3875393769963549e+00 5.6216822360039647e+00 0 0 0
20 1 1.1245193606495645e+01 -1.4549219688766497e+00 3.1199969424375160e+00 0 0 0
1058 1 1.1146053562212844e+01 1.4146295939510765e+00 5.7406419256956225e+00 0 0 0
1024 1 1.3835136530904899e+01 -1.3195624434673547e+00 5.6630023782444958e+00 0 0 0
1065 1 1.5217295560917753e+01 8.4491806388193827e-02 4.2995025634357447e+00 0 0 0
28 1 1.6411476017621304e+01 -1.3602395369413938e+00 2.8875993592680467e+00 0 0 0
1073 1 2.0529454124224074e+01 1.0706423747653165e-01 4.4387590362766183e+00 0 0 0
36 1 2.1984732652281714e+01 -1.1311172712255066e+00 3.1001407489489967e+00 0 0 0
1041 1 -1.0574420394062827e+00 2.3868412488416882e-02 4.4450153782074908e+00 0 0 0
78 1 2.4812663343167557e+01 1.3348952874536528e+00 3.2668366760118910e+00 0 0 0
44 1 2.7761645983180022e-01 3.9721946900487661e+00 3.0191093256537540e+00 0 0 0
1047 1 1.6317674673642100e+00 2.7957751484836466e+00 4.3309307529902954e+00 0 0 0
46 1 3.0960494014307254e+00 1.3533358662038910e+00 2.9440193865960551e+00 0 0 0
1048 1 3.2025129992824373e+00 4.0105899325547067e+00 5.5967528552050201e+00 0 0 0
52 1 5.7559831385420468e+00 3.9008334643990934e+00 3.0702518003849559e+00 0 0 0
1055 1 7.1742586884587176e+00 2.7168455816608552e+00 4.4018735227568246e+00 0 0 0
1056 1 8.4632267072664735e+00 4.0601745855141829e+00 5.8232536475191630e+00 0 0 0
60 1 1.1159950887992245e+01 4.0127127277074974e+00 3.0199697577698310e+00 0 0 0
62 1 1.3903527240006051e+01 1.3932782653793854e+00 2.8625993245311236e+00 0 0 0
1063 1 1.2522709128919155e+01 2.6788606380111104e+00 4.1814989062204422e+00 0 0 0
68 1 1.6668668513795755e+01 4.0796472072356496e+00 2.8646964466063003e+00 0 0 0
1071 1 1.7957072631155356e+01 2.7912786163619092e+00 4.2860094271227211e+00 0 0 0
70 1 1.9247422407664132e+01 1.2646171074071766e+00 2.9058156084680467e+00 0 0 0
76 1 2.2053586648622716e+01 4.1001345997415770e+00 3.0349689558973050e+00 0 0 0
1079 1 2.3415616531546444e+01 2.7240896186391290e+00 4.4110927673021960e+00 0 0 0
1087 1 1.5647241722016454e+00 8.0347110142174039e+00 4.3903039675301070e+00 0 0 0
1089 1 4.4449130198812945e+00 5.3682378211577779e+00 4.2278841948954993e+00 0 0 0
86 1 3.0337199575270959e+00 6.7375350497023252e+00 2.9858578773634208e+00 0 0 0
94 1 8.3583643310739895e+00 6.8148061047243829e+00 3.0296270701838881e+00 0 0 0
1097 1 9.9175991580780885e+00 5.4149969517486420e+00 4.3137448154381213e+00 0 0 0
1103 1 1.2522721403239130e+01 8.1325035861777835e+00 4.2415339973340096e+00 0 0 0
102 1 1.3961564510688008e+01 6.7007313295396536e+00 2.9946724165759542e+00 0 0 0
1105 1 1.5255238620573198e+01 5.3546518696691470e+00 4.2578823352402448e+00 0 0 0
110 1 1.9279404405728446e+01 6.7385246870965068e+00 2.9876069133499343e+00 0 0 0
1113 1 2.0626416485154682e+01 5.3563838892050057e+00 4.3622545313470704e+00 0 0 0
118 1 2.4711303151780683e+01 6.7149377487764275e+00 2.9561225736864638e+00 0 0 0
1119 1 2.3228811232776710e+01 8.0326122507161504e+00 4.3250621921974739e+00 0 0 0
1081 1 -1.0872689781669607e+00 5.3245863716774746e+00 4.3225538325552044e+00 0 0 0
84 1 3.0356764777915124e-01 9.5456730711984115e+00 3.0824839323013147e+00 0 0 0
1129 1 4.2734013567213847e+00 1.0805104592727652e+01 4.4414904316726167e+00 0 0 0
1095 1 6.8836434954591388e+00 8.0425908128398795e+00 4.3548183610015467e+00 0 0 0
92 1 5.4883109741654899e+00 9.3440188334671301e+00 2.9765502434490525e+00 0 0 0
1137 1 9.6410367128596359e+00 1.0774774606109389e+01 4.4447705100271833e+00 0 0 0
100 1 1.1133655802033026e+01 9.4022862802591050e+00 3.0031205665247467e+00 0 0 0
1145 1 1.5154759125358179e+01 1.0691326804309892e+01 4.4062315058067885e+00 0 0 0
108 1 1.6455758203252632e+01 9.2824812638119294e+00 2.8926967636454832e+00 0 0 0
1111 1 1.7862035306261362e+01 8.0724792724967642e+00 4.4449880007390208e+00 0 0 0
1153 1 2.0572359808547084e+01 1.0855566747756471e+01 4.4355352176689387e+00 0 0 0
116 1 2.1813642667082735e+01 9.4803867030724192e+00 2.8070356043249105e+00 0 0 0
1120 1 2.4622491444366631e+01 9.3723263811537834e+00 5.5923517386262738e+00 0 0 0
1121 1 2.5961136333371201e+01 1.0785186793079202e+01 4.4454823444790117e+00 -1 0 0
1002 1 4.2628872817643454e-01 -4.1062725363578449e+00 5.7280614883112033e+00 0 0 0
1011 1 4.3712362840963186e+00 -2.7608847449458174e+00 7.1007736124155567e+00 0 0 0
1006 1 2.9911858102181870e+00 -4.1078625777424245e+00 8.4777021024471200e+00 0 0 0
2121 1 2.6046046154230432e+01 1.0730004455370032e+01 9.8018305956027554e+00 -1 0 0
1019 1 9.7111071585973363e+00 -2.8366128109477895e+00 7.0490758975410879e+00 0 0 0
1014 1 8.3471297973405250e+00 -4.1693236385500008e+00 8.4063314015642234e+00 0 0 0
1021 1 1.2484983582037144e+01 -5.4105663756949287e+00 6.9351614491536768e+00 0 0 0
1022 1 1.4018327686500898e+01 -4.1949084943617185e+00 8.3162290803554946e+00 0 0 0
1027 1 1.5203278409135384e+01 -2.8222395744728868e+00 7.0865954036382419e+00 0 0 0
1026 1 1.6592654657041891e+01 -4.1982984163330981e+00 5.7800451959604642e+00 0 0 0
1030 1 1.9406892249077487e+01 -4.1443833343164389e+00 8.3029808646478163e+00 0 0 0
1034 1 2.2276155402276490e+01 -4.0071089715457502e+00 5.7446331527184373e+00 0 0 0
1035 1 2.0765577905338468e+01 -2.6469525996860859e+00 6.8577580997558192e+00 0 0 0
1038 1 2.4842968759936735e+01 -4.1179684607425218e+00 8.5156141738774114e+00 0 0 0
1003 1 -9.8067346005263190e-01 -2.7443280074807168e+00 7.0533639876362351e+00 0 0 0
1045 1 1.7074073858517789e+00 3.3465038914084103e-02 7.1241897915434986e+00 0 0 0
1004 1 3.2082579666265704e-01 -1.3356877941622121e+00 8.4222959969481721e+00 0 0 0
1053 1 6.9664380806530550e+00 -2.3622579220297250e-02 7.0028659334711376e+00 0 0 0
1012 1 5.8162859892533003e+00 -1.4302892281302446e+00 8.5951388003315063e+00 0 0 0
1020 1 1.1120553007375484e+01 -1.5764994879226466e+00 8.4183426190886035e+00 0 0 0
1061 1 1.2417538013983762e+01 -1.1491474435391063e-02 7.1906318018966715e+00 0 0 0
1028 1 1.6618213783700568e+01 -1.3044932788957877e+00 8.3279419826422370e+00 0 0 0
1069 1 1.7952597718581703e+01 -4.0596617228989287e-02 6.9267378735564211e+00 0 0 0
1032 1 1.9219005997962228e+01 -1.3125037178905334e+00 5.6664117046195477e+00 0 0 0
1074 1 2.1916351938249068e+01 1.4450318406004048e+00 5.7089108947172580e+00 0 0 0
1036 1 2.2028622273656246e+01 -1.2892146229063071e+00 8.3229054657891854e+00 0 0 0
1077 1 2.3356413223644505e+01 1.1924213322133578e-01 7.0529672961994656e+00 0 0 0
1040 1 2.4782132824708626e+01 -1.3154774631040360e+00 5.7938651023046237e+00 0 0 0
1044 1 4.0247192232598544e-01 4.1235074376176133e+00 8.3760056197839070e+00 0 0 0
1051 1 4.4377182039328993e+00 2.6046344042532952e+00 7.1111643531760800e+00 0 0 0
1046 1 3.0775859154718606e+00 1.3263322273834071e+00 8.4643389364512416e+00 0 0 0
1050 1 5.6908476255963496e+00 1.3019576038106628e+00 5.6065573778852418e+00 0 0 0
1052 1 5.5759716181442558e+00 4.0871439140899772e+00 8.4553629391005689e+00 0 0 0
1059 1 9.7866007357638249e+00 2.6731480540780472e+00 7.0450916441818814e+00 0 0 0
1054 1 8.4243146088282455e+00 1.3384620903890749e+00 8.4530082852854669e+00 0 0 0
1060 1 1.1218032854007410e+01 3.9284926184159685e+00 8.4375800148181224e+00 0 0 0
1064 1 1.3941806023667025e+01 4.0215896215164646e+00 5.6234893720708223e+00 0 0 0
1062 1 1.3936929221312775e+01 1.2288147749245566e+00 8.3753395201220417e+00 0 0 0
1066 1 1.6547191443995406e+01 1.3846463684491093e+00 5.6832760025609899e+00 0 0 0
1067 1 1.5140105606537611e+01 2.7051504508711668e+00 7.0854482327631692e+00 0 0 0
1068 1 1.6561963962824862e+01 4.0354649723695601e+00 8.3654932346881505e+00 0 0 0
1072 1 1.9200469692296146e+01 4.0888087695447597e+00 5.6848680268781777e+00 0 0 0
1070 1 1.9257912612821919e+01 1.2747197792778977e+00 8.4500107153872452e+00 0 0 0
1075 1 2.0514571668178540e+01 2.7690249288329203e+00 7.0751934911214880e+00 0 0 0
1076 1 2.2001300941948735e+01 4.0501871920269252e+00 8.5345517160514177e+00 0 0 0
1080 1 2.4738416198735504e+01 4.0805653723958244e+00 5.8275059007981040e+00 0 0 0
1078 1 2.4726252120558755e+01 1.4257543806229309e+00 8.5520146772406171e+00 0 0 0
1043 1 -1.0841629934188468e+00 2.8555677473115231e+00 7.2491623528635687e+00 0 0 0
1082 1 3.3840246246702343e-01 6.7044478771863609e+00 5.7343586607244168e+00 0 0 0
1085 1 1.8373569994261334e+00 5.3618427302510359e+00 7.0489531655131978e+00 0 0 0
1091 1 4.3457942174695354e+00 8.0819977537604046e+00 7.1002409978780143e+00 0 0 0
1086 1 3.0034242817447447e+00 6.8608321726876573e+00 8.5603548842118382e+00 0 0 0
1090 1 5.7275854047502053e+00 6.6526733745083400e+00 5.7921258364103059e+00 0 0 0
1093 1 6.9630884382650171e+00 5.3825812482314532e+00 7.1187391193929797e+00 0 0 0
1099 1 9.7917223284243402e+00 8.0079327877806250e+00 7.0448065707421197e+00 0 0 0
1094 1 8.4817267281878337e+00 6.5810324451012248e+00 8.4520802286228243e+00 0 0 0
1098 1 1.1154114238139222e+01 6.6791907659327840e+00 5.6558903065685966e+00 0 0 0
1101 1 1.2466065446601121e+01 5.2754188070195740e+00 6.9812122414498283e+00 0 0 0
1102 1 1.3878439837810490e+01 6.5214613593265893e+00 8.3319403199298989e+00 0 0 0
1106 1 1.6531329148497470e+01 6.7759782782667921e+00 5.7228812521412271e+00 0 0 0
1109 1 1.7991364910820607e+01 5.4751793630745293e+00 7.1050010406659689e+00 0 0 0
1110 1 1.9410172280032839e+01 6.7047239260443714e+00 8.5251116591428637e+00 0 0 0
1114 1 2.1892615784924260e+01 6.7419869101806897e+00 5.8135198130960575e+00 0 0 0
1117 1 2.3264893228441871e+01 5.4335901640491038e+00 7.1556168935758286e+00 0 0 0
1118 1 2.4710529817820483e+01 6.6987233881955826e+00 8.3832760027695077e+00 0 0 0
1083 1 -1.0289500173933988e+00 8.0973829098973003e+00 6.9652217486529286e+00 0 0 0
1125 1 1.6496928689968227e+00 1.0872750227322854e+01 7.0536843960800262e+00 0 0 0
1084 1 2.1306958806911913e-01 9.4294090457462190e+00 8.4160335464498779e+00 0 0 0
1088 1 2.8865378782167030e+00 9.4056972389668054e+00 5.6557106795907650e+00 0 0 0
1133 1 7.0244763055830592e+00 1.0832710308824778e+01 7.0277714261560593e+00 0 0 0
1092 1 5.6983904727712540e+00 9.4177134344623603e+00 8.4277703257542207e+00 0 0 0
1096 1 8.2971307339303184e+00 9.3371387164762396e+00 5.7665427914975709e+00 0 0 0
1141 1 1.2412524699193385e+01 1.0767806260119395e+01 7.1742139944705601e+00 0 0 0
1100 1 1.1062135924446622e+01 9.3473806298713331e+00 8.4229400922465949e+00 0 0 0
1104 1 1.3732415327524723e+01 9.3611186008656659e+00 5.8245761803954403e+00 0 0 0
1107 1 1.5196988432091624e+01 7.9739411405521681e+00 7.0380045100061999e+00 0 0 0
1108 1 1.6408106414978139e+01 9.3339078358827354e+00 8.5404943463722969e+00 0 0 0
1149 1 1.7746183952858264e+01 1.0741921304094895e+01 7.2543445738679857e+00 0 0 0
1112 1 1.9252727558687695e+01 9.4195976939217747e+00 5.7868310653920645e+00 0 0 0
1115 1 2.0620728540501794e+01 8.1598307531061618e+00 7.1662587275148582e+00 0 0 0
1116 1 2.1989540791860584e+01 9.5336134107245201e+00 8.4459446623113781e+00 0 0 0
1157 1 2.3234938759140739e+01 1.0812580822949851e+01 7.0274880716852497e+00 0 0 0
2007 1 1.5833323181706325e+00 -2.7883113830001225e+00 9.7363924262783144e+00 0 0 0
2002 1 2.7460419246290585e-01 -4.1108994593740968e+00 1.1183611513106078e+01 0 0 0
2153 1 2.0780654374908138e+01 1.0988609872374148e+01 9.7085171311295362e+00 0 0 0
2112 1 1.9390169965465230e+01 9.5137779304632630e+00 1.1066804073784219e+01 0 0 0
2011 1 4.2677445998260177e+00 -2.7744459324312407e+00 1.2467644344303130e+01 0 0 0
2015 1 7.2034286764520310e+00 -2.8611676816423532e+00 9.8474384094953198e+00 0 0 0
2010 1 5.7131507165805182e+00 -4.1404300608286446e+00 1.1197255108843899e+01 0 0 0
2017 1 9.8323441933222870e+00 -5.4552984674304321e+00 9.6014381066117824e+00 0 0 0
2023 1 1.2575733359920898e+01 -2.7935099900364100e+00 9.7313735832742765e+00 0 0 0
2018 1 1.1169746357187996e+01 -4.1435975468813728e+00 1.1094125472964825e+01 0 0 0
2025 1 1.5297305778951202e+01 -5.4684668843792981e+00 9.7207391654116009e+00 0 0 0
2026 1 1.6659870272331929e+01 -4.1200969614324459e+00 1.1175370107786055e+01 0 0 0
2031 1 1.7985633177047404e+01 -2.7743810279599499e+00 9.7065075269159209e+00 0 0 0
2034 1 2.2109575021773054e+01 -4.2096248827875264e+00 1.1166985531832275e+01 0 0 0
2039 1 2.3377091186300795e+01 -2.7619843650168123e+00 9.7565940316121260e+00 0 0 0
2042 1 4.8383293402083727e-01 1.4112548044999798e+00 1.1236713735824535e+01 0 0 0
2041 1 -9.7586641960919707e-01 1.3628979844962127e-01 9.7733950456883800e+00 0 0 0
2049 1 4.4370142704590991e+00 -2.5567747812669701e-02 9.8904998789015952e+00 0 0 0
2008 1 3.0123615005549857e+00 -1.5974233792961439e+00 1.1050966302132954e+01 0 0 0
2057 1 9.8681442877641778e+00 -3.9991812411049703e-02 9.5781364807555409e+00 0 0 0
2016 1 8.4316398948995221e+00 -1.2109684714716433e+00 1.0989314499864989e+01 0 0 0
2024 1 1.3892024905084158e+01 -1.3225116771016994e+00 1.1201423467850882e+01 0 0 0
2065 1 1.5219059466689707e+01 2.4917134366305896e-02 9.8456247265866388e+00 0 0 0
2066 1 1.6565517862394426e+01 1.4004442295421331e+00 1.1048919468310404e+01 0 0 0
2032 1 1.9430481919850337e+01 -1.4512409033837617e+00 1.1165384293174025e+01 0 0 0
2073 1 2.0735766504236341e+01 -5.1630075354522929e-02 9.7927510766166233e+00 0 0 0
2040 1 2.4811987497138027e+01 -1.3417432495586195e+00 1.1152579850445520e+01 0 0 0
2047 1 1.7398664848549197e+00 2.7207401344228677e+00 9.8532071030022266e+00 0 0 0
2043 1 -9.7955760906125844e-01 2.6379307587277490e+00 1.2484170958302730e+01 0 0 0
2048 1 3.0680273691808422e+00 4.0139913063345682e+00 1.1232404839844365e+01 0 0 0
2055 1 6.9924116753906480e+00 2.7329856296879971e+00 9.7438372542791374e+00 0 0 0
2050 1 5.7496636166710653e+00 1.3776409104983649e+00 1.1126432786048916e+01 0 0 0
2056 1 8.4448877119796766e+00 4.0125067610066179e+00 1.1180747529895202e+01 0 0 0
2145 1 1.5050099779929361e+01 1.0877358121577267e+01 9.7825196393890899e+00 0 0 0
2058 1 1.1189993186557762e+01 1.3250720546043278e+00 1.1142149770084156e+01 0 0 0
2064 1 1.4040571882046422e+01 4.0118390560764849e+00 1.1146969048594869e+01 0 0 0
2063 1 1.2644543198815263e+01 2.5537658389280815e+00 9.8348641295531127e+00 0 0 0
2071 1 1.7916949075275404e+01 2.7369082083340190e+00 9.8283851951161374e+00 0 0 0
2072 1 1.9339198806496466e+01 4.0715390924456685e+00 1.1217973969507499e+01 0 0 0
2074 1 2.2163292734439764e+01 1.3958736419107842e+00 1.1204460027291775e+01 0 0 0
2079 1 2.3514141467902846e+01 2.8613928593261235e+00 9.8790164474626625e+00 0 0 0
2080 1 2.4914398813405786e+01 4.1282587626363592e+00 1.1169564161757672e+01 0 0 0
2082 1 4.1756567201842748e-01 6.8439016768687395e+00 1.1195287408181121e+01 0 0 0
2081 1 -9.9637380211424420e-01 5.5302532346675140e+00 9.7431531030640812e+00 0 0 0
2089 1 4.2430022714584705e+00 5.4697618262444339e+00 9.9454645572023193e+00 0 0 0
2090 1 5.6818225671073401e+00 6.8571854499288802e+00 1.1104051106830280e+01 0 0 0
2097 1 9.8602824916428329e+00 5.2901429222224436e+00 9.8059481845170371e+00 0 0 0
2098 1 1.1230548709276501e+01 6.7414705438650673e+00 1.1058692458958902e+01 0 0 0
2105 1 1.5282815397266882e+01 5.2968375081526391e+00 9.7718608910116362e+00 0 0 0
2106 1 1.6488031358976571e+01 6.7423181141084330e+00 1.1190620674771269e+01 0 0 0
2111 1 1.7907105795902392e+01 8.0852205860578685e+00 9.8327878072102379e+00 0 0 0
2113 1 2.0829170774613903e+01 5.4490727617462849e+00 9.9123966907075793e+00 0 0 0
2114 1 2.2099995624956595e+01 6.9148357481562748e+00 1.1217581186369676e+01 0 0 0
2119 1 2.3428734009076631e+01 8.2248083146032407e+00 9.7209913679735447e+00 0 0 0
2104 1 1.3826488088385078e+01 9.4083382079082654e+00 1.1156044877201641e+01 0 0 0
2087 1 1.5666169890292967e+00 8.1955207616999974e+00 9.8846514880130218e+00 0 0 0
2129 1 4.2275174712718444e+00 1.0803616199840070e+01 9.7858894422380835e+00 0 0 0
2088 1 2.9271612993423344e+00 9.4749030654663002e+00 1.1192092642259798e+01 0 0 0
2095 1 7.0811649707873032e+00 7.9656060079190363e+00 9.7000480255211290e+00 0 0 0
2137 1 9.7626372690689145e+00 1.0881795974578869e+01 9.8447136181802595e+00 0 0 0
2096 1 8.4617677678592838e+00 9.4013718511045763e+00 1.1174084377868112e+01 0 0 0
2103 1 1.2674483161028895e+01 8.0273731340022731e+00 9.6882113894369262e+00 0 0 0
2019 1 9.8081708047824403e+00 -2.6183407718318601e+00 1.2364926446131035e+01 0 0 0
2027 1 1.5418870695515466e+01 -2.6094267888159548e+00 1.2427354289935861e+01 0 0 0
2035 1 2.0743639904225024e+01 -2.8189799123282446e+00 1.2456309707311799e+01 0 0 0
2045 1 1.6523655417367384e+00 -1.9383709653415118e-01 1.2468254148331873e+01 0 0 0
2053 1 7.0686841221161716e+00 -1.9613481637679803e-02 1.2490888931456094e+01 0 0 0
2069 1 1.7965452057768122e+01 3.7097414990012290e-02 1.2390284876669362e+01 0 0 0
2051 1 4.4617975264564844e+00 2.8336498992024990e+00 1.2450708568101678e+01 0 0 0
2075 1 2.0660046654439409e+01 2.6609046837286363e+00 1.2487099914645707e+01 0 0 0
2085 1 1.6196384144372833e+00 5.4613203364007470e+00 1.2449861572900760e+01 0 0 0
2093 1 7.1200876016084171e+00 5.5852057919100924e+00 1.2445336712788201e+01 0 0 0
2099 1 9.9209919411059548e+00 8.0795874523882301e+00 1.2462987322053918e+01 0 0 0
2101 1 1.2560581611966921e+01 5.3626353311557882e+00 1.2449320656600277e+01 0 0 0
2109 1 1.7753037640452458e+01 5.2808483724618993e+00 1.2424525676233104e+01 0 0 0
119 1 2.3335502824331357e+01 8.0478901646687504e+00 -1.0395649790657941e+00 0 0 0
2133 1 6.9936540054111527e+00 1.0776723009299838e+01 1.2470971594682416e+01 0 0 0
2149 1 1.7989405432810980e+01 1.0851112457136018e+01 1.2432722220434426e+01 0 0 0
2115 1 2.0675038241270357e+01 8.1534813389876870e+00 1.2477732851657086e+01 0 0 0
63 1 1.2568334454933396e+01 2.7146236672180155e+00 -1.1024146175639622e+00 0 0 0
95 1 6.9868847500927220e+00 7.9795646718574833e+00 -1.0945454282372893e+00 0 0 0
3007 1 1.6320364664171088e+00 -2.6897020140141632e+00 1.5243585247876657e+01 0 0 0
3001 1 -9.8519454105015669e-01 -5.3662783157510061e+00 1.5172488494145599e+01 0 0 0
2006 1 2.9704294000522737e+00 -4.1329426758311882e+00 1.3829730230005024e+01 0 0 0
3015 1 7.0299218041145695e+00 -2.6887541882506949e+00 1.5180165397577655e+01 0 0 0
2014 1 8.6511341235241801e+00 -3.9328193673573297e+00 1.3946864176871182e+01 0 0 0
4029 1 1.8015813332435329e+01 -5.4018670726858318e+00 2.3326135118429434e+01 0 0 0
4157 1 2.3341535489125654e+01 1.0653951640998701e+01 2.3304905113988116e+01 0 0 0
2022 1 1.3804363385410378e+01 -4.1151813378402391e+00 1.3704682629001063e+01 0 0 0
3023 1 1.2517417541465585e+01 -2.8374148558425372e+00 1.5155973495942625e+01 0 0 0
4033 1 2.0805451003859041e+01 -5.5161141021727644e+00 2.0739111061045474e+01 0 0 0
2030 1 1.9509355562325396e+01 -4.1191706664834351e+00 1.3920757172317302e+01 0 0 0
3031 1 1.7863697111340709e+01 -2.7122378471676067e+00 1.5183797772653731e+01 0 0 0
3037 1 2.3529545344267660e+01 -5.3791728902026250e+00 1.8030282402571469e+01 0 0 0
153 1 2.0631423379879358e+01 1.0949740751900917e+01 2.6025888812355785e+01 0 0 -1
2038 1 2.4719441072498977e+01 -3.9718938411629696e+00 1.3747109998136166e+01 0 0 0
3039 1 2.3365303139745762e+01 -2.7131804199840888e+00 1.5245356052095135e+01 0 0 0
3029 1 1.7891973327232716e+01 -5.4211583133929935e+00 1.7987282218465019e+01 0 0 0
2004 1 2.6000000044649069e-01 -1.2800464728543111e+00 1.3863803709317040e+01 0 0 0
3041 1 2.5991468251013323e+01 -4.0565348371509415e-02 1.5254060298206564e+01 -1 0 0
2046 1 2.9436021461972284e+00 1.2970171947942295e+00 1.3792490324195720e+01 0 0 0
3049 1 4.2700368574651941e+00 -9.6218267660319601e-02 1.5186698966025904e+01 0 0 0
2012 1 5.6663031502521291e+00 -1.4419863626812044e+00 1.3876485114460108e+01 0 0 0
3005 1 1.5306887744622801e+00 -5.4587939931751919e+00 1.7974051232149410e+01 0 0 0
2054 1 8.4794451097952539e+00 1.3778138902412229e+00 1.3848165185930515e+01 0 0 0
3057 1 9.6972723882761738e+00 -6.7417078275004358e-03 1.5207620346159782e+01 0 0 0
2020 1 1.1104777737542731e+01 -1.4013841649355829e+00 1.3807510180854509e+01 0 0 0
2062 1 1.4002750077928411e+01 1.2146266027548263e+00 1.3992918686102232e+01 0 0 0
2061 1 1.2550279006053552e+01 7.0026044821218547e-02 1.2550967478138128e+01 0 0 0
2028 1 1.6726340140605362e+01 -1.2780154356368485e+00 1.3900684016625126e+01 0 0 0
3065 1 1.5273881420306202e+01 -4.7430682882932326e-02 1.5396371837183574e+01 0 0 0
3033 1 2.0839736001186211e+01 -5.4393812602752121e+00 1.5284320313175764e+01 0 0 0
2070 1 1.9338913784800159e+01 1.3599265175925859e+00 1.3930172814518659e+01 0 0 0
2036 1 2.1987479933544311e+01 -1.4021653878558256e+00 1.3816501592229580e+01 0 0 0
3073 1 2.0728620217043897e+01 7.8583798894302538e-03 1.5219727599020644e+01 0 0 0
2077 1 2.3354501298954414e+01 -5.0193354932443930e-02 1.2577207048088917e+01 0 0 0
2044 1 2.0778220305005785e-01 3.9622043906799296e+00 1.3728733611377121e+01 0 0 0
3047 1 1.7058204345032293e+00 2.7277630791020937e+00 1.5212907189894384e+01 0 0 0
4092 1 5.8064042764144821e+00 9.4577960864322854e+00 2.4687064309207152e+01 0 0 0
2052 1 5.6622083544572206e+00 4.1730763006243867e+00 1.3711933329884626e+01 0 0 0
3055 1 6.8886375096697634e+00 2.8083201457935245e+00 1.5059054897422799e+01 0 0 0
2060 1 1.1175677535323095e+01 4.0609204697871544e+00 1.3900651213350679e+01 0 0 0
3063 1 1.2477217606862194e+01 2.6176198190012383e+00 1.5190024199033346e+01 0 0 0
2067 1 1.5270672135633587e+01 2.5449913735582612e+00 1.2578843079492930e+01 0 0 0