LAMMPS data file via write_data, version 30 Jul 2016, timestep = 50000

5000 atoms
1 atom types

-1.1037168688014471e+00 2.6103716868801385e+01 xlo xhi
-5.5185843440072304e+00 1.3051858434400725e+02 ylo yhi
-1.1037168688014471e+00 2.6103716868801385e+01 zlo zhi

Masses

1 28.0855

Atoms # atomic

2 1 3.8577063680731460e-01 -4.0813504154546507e+00 3.4833924090809371e-01 0 0 0
3 1 -9.0825616281837618e-01 -2.6665427647006874e+00 1.8514548076307777e+00 0 0 0
1037 1 2.3577548444938230e+01 -5.3328473974413271e+00 6.9548030528495666e+00 0 0 0
11 1 4.2769798897598124e+00 -2.6884581852463225e+00 1.5010756254770630e+00 0 0 0
10 1 5.6637132895397491e+00 -4.0606878478764648e+00 1.8380414266766559e-01 0 0 0
1029 1 1.8091252905483426e+01 -5.3877743625230892e+00 7.0267778396738247e+00 0 0 0
19 1 9.8607193723208901e+00 -2.7685526253869988e+00 1.7116100409840511e+00 0 0 0
17 1 9.9482665877837508e+00 -5.3661260887411011e+00 -9.8330856408491862e-01 0 0 0
18 1 1.1262279813000104e+01 -4.0560346225682293e+00 3.5092990935829332e-01 0 0 0
23 1 1.2563972356246989e+01 -2.8128480771408446e+00 -1.0969618746964676e+00 0 0 0
27 1 1.5137300642121556e+01 -2.7704440624775568e+00 1.5388991271861081e+00 0 0 0
26 1 1.6679135175979134e+01 -3.9685687663136218e+00 2.2319469514785450e-01 0 0 0
1005 1 1.8205988018075405e+00 -5.4262164192369085e+00 7.1358542884797789e+00 0 0 0
34 1 2.2090326114101561e+01 -3.9631710042081845e+00 2.9134777499912751e-01 0 0 0
35 1 2.0718615060338529e+01 -2.6375832326549276e+00 1.7057032113876636e+00 0 0 0
1025 1 1.5271250108439485e+01 -5.3915800532050753e+00 4.3058994231414438e+00 0 0 0
41 1 -1.0420465683428592e+00 -4.2807655605344372e-02 -9.5029514699395867e-01 0 0 0
45 1 1.6387880203132794e+00 -3.3767980962662751e-02 1.6266557941519117e+00 0 0 0
1009 1 4.4308036971407656e+00 -5.4597286581442290e+00 4.2503298496600124e+00 0 0 0
8 1 2.8745389601126869e+00 -1.3624773889756407e+00 2.4940640502012854e-01 0 0 0
53 1 6.9922862822370933e+00 -2.1557761841706029e-02 1.6674331468261228e+00 0 0 0
50 1 5.6227395405557274e+00 1.2926099606164829e+00 1.1145650501756436e-01 0 0 0
16 1 8.5152756227064650e+00 -1.3859592127065419e+00 4.0427289237035541e-01 0 0 0
57 1 9.9408566777421985e+00 -5.6319772312879865e-02 -1.0847906096084563e+00 0 0 0
58 1 1.1376639135494219e+01 1.2673368204886855e+00 1.4536033173893656e-01 0 0 0
24 1 1.3899197092463737e+01 -1.5010710353126011e+00 2.9480731984805542e-01 0 0 0
61 1 1.2525282045674956e+01 -2.3783469251779712e-01 1.6328404786836970e+00 0 0 0
66 1 1.6669298212041912e+01 1.3023334596743965e+00 2.7778242594185643e-01 0 0 0
1001 1 -8.6571084943489984e-01 -5.4243271357781850e+00 4.3666071932543336e+00 0 0 0
69 1 1.7975396265274682e+01 -3.9826994052060617e-02 1.4864618229382787e+00 0 0 0
32 1 1.9407303998042188e+01 -1.2919624100378613e+00 2.5522969602017914e-01 0 0 0
37 1 2.3635170608298520e+01 -5.2795282367789866e+00 1.5524464095897732e+00 0 0 0
77 1 2.3268817492134293e+01 5.7010436456495714e-02 1.6385715130635401e+00 0 0 0
40 1 2.4715942854364762e+01 -1.4425241295630311e+00 4.1832078959377716e-01 0 0 0
42 1 2.6515874882173979e-01 1.3912297825698667e+00 3.5590464096340746e-01 0 0 0
47 1 1.5443269325403497e+00 2.6871101843361935e+00 -1.0619392463409174e+00 0 0 0
51 1 4.4388607796995334e+00 2.6350196827016581e+00 1.6261511454963911e+00 0 0 0
48 1 2.9823245232240261e+00 4.0940737642238583e+00 2.6245585936262733e-01 0 0 0
56 1 8.4750676086565573e+00 3.9697567234707138e+00 3.1847073189569947e-01 0 0 0
59 1 9.9726024879753297e+00 2.5774857313418957e+00 1.6460877237395473e+00 0 0 0
64 1 1.3841708498789686e+01 3.9209419146699025e+00 2.1274908635129425e-01 0 0 0
67 1 1.5119366319189808e+01 2.6451596383039147e+00 1.5965855334078149e+00 0 0 0
72 1 1.9351756333169423e+01 4.0356639754502286e+00 2.2904640339359028e-01 0 0 0
33 1 2.0690774902398921e+01 -5.5057590472818561e+00 -1.0501200102509736e+00 0 0 0
74 1 2.2024290682292847e+01 1.3653982516615344e+00 2.0512938484521859e-01 0 0 0
75 1 2.0718382613013333e+01 2.6776579132253118e+00 1.6690485261422854e+00 0 0 0
29 1 1.8020737965674442e+01 -5.3811239927937038e+00 1.6413716310346118e+00 0 0 0
80 1 2.4752517170528478e+01 4.0716067891536953e+00 1.0208344701760806e-01 0 0 0
43 1 2.5977955764070984e+01 2.7593055018869408e+00 1.6435659915856387e+00 -1 0 0
82 1 3.2499897280124007e-01 6.7948238552823952e+00 2.7306830181978098e-01 0 0 0
85 1 1.5796741573223949e+00 5.4159411789102911e+00 1.6182612475532756e+00 0 0 0
25 1 1.5199091559658077e+01 -5.3885684429077969e+00 -1.0612924910337316e+00 0 0 0
13 1 7.1252280052468926e+00 -5.5107557460609087e+00 1.4310306377592490e+00 0 0 0
91 1 4.2685910375491272e+00 7.9083883381332623e+00 1.5640262031586531e+00 0 0 0
90 1 5.7676126808602683e+00 6.6941112011754811e+00 3.0475924897009149e-01 0 0 0
93 1 7.1174203069529254e+00 5.3876273829744745e+00 1.6497758088092715e+00 0 0 0
98 1 1.1095920349201785e+01 6.7827332104353966e+00 3.8645790985327455e-01 0 0 0
101 1 1.2546811003186132e+01 5.4108804023024186e+00 1.5773657030582464e+00 0 0 0
106 1 1.6508727930184406e+01 6.6104807691487739e+00 1.2041496711154605e-01 0 0 0
2001 1 -9.2059726535349640e-01 -5.4218960703867936e+00 9.8068281906025661e+00 0 0 0
109 1 1.7993825100349785e+01 5.4357158134412655e+00 1.5638516739453583e+00 0 0 0
114 1 2.1922840845921417e+01 6.6319073070646208e+00 1.7448565594235654e-01 0 0 0
115 1 2.0579445214073289e+01 8.0848109203970040e+00 1.5349332325417426e+00 0 0 0
1 1 -9.8305493028025603e-01 -5.4669812235633231e+00 -1.0450043250821248e+00 0 0 0
117 1 2.3309752277325131e+01 5.3873733656115430e+00 1.7079566831493793e+00 0 0 0
5 1 1.7990717003369758e+00 -5.4533346847680377e+00 1.6892606933072498e+00 0 0 0
125 1 1.4481049918354953e+00 1.0861273264259408e+01 1.5389297782427189e+00 0 0 0
88 1 2.9781051100612244e+00 9.5532619878809104e+00 2.0413951687810306e-01 0 0 0
2112 1 1.9453434838406523e+01 9.5592932137580231e+00 1.1181908823821580e+01 0 0 0
133 1 7.0038916658359343e+00 1.0648282856707768e+01 1.7751625993212519e+00 0 0 0
99 1 9.8268170861843149e+00 8.1412324218815613e+00 1.6998278231738873e+00 0 0 0
96 1 8.4434185496762186e+00 9.4379990702380816e+00 2.1227393246299131e-01 0 0 0
2145 1 1.5194550938219319e+01 1.0896152138231905e+01 9.8106336628459925e+00 0 0 0
103 1 1.2401611702635231e+01 7.9186711143043755e+00 -1.0681220293725504e+00 0 0 0
104 1 1.3718812946649722e+01 9.3850670471585502e+00 1.8386260623888584e-01 0 0 0
141 1 1.2471100031972329e+01 1.0773043935697769e+01 1.7694839007816618e+00 0 0 0
107 1 1.5165162271393351e+01 8.0657352947488299e+00 1.5466499486660590e+00 0 0 0
2104 1 1.3907017891668547e+01 9.4589111076160304e+00 1.1116027897461983e+01 0 0 0
149 1 1.7847967035999002e+01 1.0796965503904039e+01 1.6833221043338895e+00 0 0 0
112 1 1.9233285545427059e+01 9.4254354957979540e+00 2.7573529023530885e-01 0 0 0
157 1 2.3209793747354514e+01 1.0898881165916343e+01 1.6667787467562105e+00 0 0 0
120 1 2.4705603798349085e+01 9.5077446418842424e+00 1.7630423274191900e-01 0 0 0
83 1 2.6076811720106740e+01 8.1894767896291132e+00 1.4689802730238297e+00 -1 0 0
2103 1 1.2616473517583021e+01 8.1239070795168349e+00 9.7377145606795459e+00 0 0 0
1007 1 1.6506174491171934e+00 -2.7333855496746464e+00 4.3231883429881011e+00 0 0 0
6 1 3.0965797701294675e+00 -4.0402438837251848e+00 2.9665297994061173e+00 0 0 0
1015 1 7.1073514609149466e+00 -2.7415442779333525e+00 4.4306177406371647e+00 0 0 0
1010 1 5.6978808016626932e+00 -4.1638840951412517e+00 5.7423353473436016e+00 0 0 0
14 1 8.4053584499843428e+00 -4.1912072410693986e+00 3.0406682536124938e+00 0 0 0
2121 1 2.6049457293958888e+01 1.0732416082930259e+01 9.7568305555040027e+00 -1 0 0
1018 1 1.1248366137783119e+01 -4.1752506229385640e+00 5.6266691779553684e+00 0 0 0
22 1 1.3803042274571643e+01 -4.1277272027909966e+00 3.0672815959102020e+00 0 0 0
1023 1 1.2609445535835558e+01 -2.7557009247824147e+00 4.4094869490882660e+00 0 0 0
1031 1 1.7935368510102872e+01 -2.7876180585592989e+00 4.2807317125995308e+00 0 0 0
30 1 1.9404809135692304e+01 -4.2043680204395315e+00 2.9702512066297908e+00 0 0 0
1033 1 2.0874533865951260e+01 -5.3586988801784567e+00 4.2923586760511778e+00 0 0 0
38 1 2.4904421596471270e+01 -3.9189994293629771e+00 3.0841104079570161e+00 0 0 0
1039 1 2.3501577732315102e+01 -2.5767576875984992e+00 4.3621043280975114e+00 0 0 0
4 1 2.9544650623964691e-01 -1.1577116833589194e+00 3.0780659005123732e+00 0 0 0
1042 1 2.3310406894622762e-01 1.4089158827516690e+00 5.7369811295951010e+00 0 0 0
1049 1 4.4101758947116325e+00 -1.7180998268552714e-02 4.4576285125478075e+00 0 0 0
1008 1 2.9221196801663418e+00 -1.3009196865208044e+00 5.7123412980783703e+00 0 0 0
12 1 5.6153504973990973e+00 -1.3632835582032949e+00 2.9706277835413961e+00 0 0 0
54 1 8.4452068761577088e+00 1.2039910087088430e+00 3.0588474796471163e+00 0 0 0
1057 1 9.8905828303709011e+00 -1.0669865547068742e-02 4.2637588934270276e+00 0 0 0
1016 1 8.4381685981229122e+00 -1.2140506481694939e+00 5.7139740162354178e+00 0 0 0
20 1 1.1253709000115771e+01 -1.4661292660273137e+00 3.0793306410465995e+00 0 0 0
1058 1 1.1160111166224457e+01 1.3560910561563491e+00 5.6292818808478788e+00 0 0 0
1024 1 1.3936688110427840e+01 -1.3853782040007050e+00 5.7550439914547473e+00 0 0 0
1065 1 1.5273869912673247e+01 -2.4232363818412810e-02 4.2572562778657179e+00 0 0 0
28 1 1.6565732655351184e+01 -1.3664589692064393e+00 2.8754554467946760e+00 0 0 0
1073 1 2.0618563216222270e+01 -5.9546535671091642e-03 4.3201484700057096e+00 0 0 0
36 1 2.2026930669215826e+01 -1.2349165388209740e+00 3.1006751715586711e+00 0 0 0
1041 1 2.6082245137013881e+01 1.5081757835964674e-01 4.3393281783888247e+00 -1 0 0
78 1 2.4634626849273907e+01 1.3767939312446300e+00 3.0393010767947115e+00 0 0 0
44 1 2.2188163419504736e-01 4.0337104643437263e+00 2.9327539302024999e+00 0 0 0
1047 1 1.6682736987987772e+00 2.6893693146273931e+00 4.3769659276503843e+00 0 0 0
46 1 3.1209797716766352e+00 1.3392550739825564e+00 2.9725068670510129e+00 0 0 0
1048 1 3.0005417191924892e+00 3.9524427450761528e+00 5.6237902563297251e+00 0 0 0
52 1 5.8363560506825554e+00 3.9871898384680415e+00 2.9598058887623613e+00 0 0 0
1055 1 6.9891947412434963e+00 2.5165144554519259e+00 4.4111485037232931e+00 0 0 0
1056 1 8.4724811788949168e+00 3.9234568513642460e+00 5.6341627077315266e+00 0 0 0
60 1 1.1193421742915969e+01 4.0210769247188090e+00 2.9440036670518324e+00 0 0 0
62 1 1.3874485268792908e+01 1.2266887203601078e+00 2.9232775032158171e+00 0 0 0
1063 1 1.2594067546809709e+01 2.6473623811883593e+00 4.3363317128146592e+00 0 0 0
68 1 1.6554223816587939e+01 4.1066924419719681e+00 2.8273432792835655e+00 0 0 0
1071 1 1.8001084727113341e+01 2.7886396313774724e+00 4.1686238861491463e+00 0 0 0
70 1 1.9350932579594108e+01 1.2943638080907978e+00 2.9279762257128827e+00 0 0 0
76 1 2.2000265467577631e+01 4.0053870954023525e+00 3.0950149616849503e+00 0 0 0
1079 1 2.3444597374928406e+01 2.7322352635982701e+00 4.3596642229666873e+00 0 0 0
1087 1 1.6043022355703482e+00 8.0945133684196513e+00 4.3309076760696827e+00 0 0 0
1089 1 4.4450481503137382e+00 5.2472021125414923e+00 4.2252960932924655e+00 0 0 0
86 1 2.9707017953018706e+00 6.6989539024773874e+00 2.9433832580884474e+00 0 0 0
94 1 8.4567046206429044e+00 6.7391556576791460e+00 3.0551103126490133e+00 0 0 0
1097 1 9.8141954997197107e+00 5.3575446305010184e+00 4.3579757820349601e+00 0 0 0
1103 1 1.2583037854774105e+01 8.0892477888831014e+00 4.4234723258316553e+00 0 0 0
102 1 1.3828771222263191e+01 6.9229620520436184e+00 2.9414872070434162e+00 0 0 0
1105 1 1.5102326260969859e+01 5.3558793305244699e+00 4.3369405959893923e+00 0 0 0
110 1 1.9337963426871315e+01 6.8664210050005989e+00 3.0520306154310761e+00 0 0 0
1113 1 2.0733004200727532e+01 5.4148681255702460e+00 4.3998046564923170e+00 0 0 0
118 1 2.4670281148381822e+01 6.8094749350741166e+00 2.8480584611180606e+00 0 0 0
1119 1 2.3316405382635903e+01 8.1209629630008546e+00 4.3247491759569909e+00 0 0 0
1081 1 2.6057429158077376e+01 5.4789286334225400e+00 4.2565303485663071e+00 -1 0 0
84 1 2.4090046881943061e-01 9.5330236461434179e+00 2.9871542217048681e+00 0 0 0
1129 1 4.3163554696324544e+00 1.0733145673897958e+01 4.3542882123345992e+00 0 0 0
1095 1 7.1588878108556466e+00 8.0573724664955613e+00 4.3240827807905342e+00 0 0 0
92 1 5.4596460799915461e+00 9.2505181354941435e+00 2.9677693765219786e+00 0 0 0
1137 1 9.8219626396227824e+00 1.0795167144483576e+01 4.3799109203898645e+00 0 0 0
100 1 1.1203010061352286e+01 9.4127725789463472e+00 3.1793945958887271e+00 0 0 0
1145 1 1.5279167544584013e+01 1.0704893874949276e+01 4.4574791171035839e+00 0 0 0
108 1 1.6589175686643500e+01 9.3588197523463919e+00 2.9960395481095796e+00 0 0 0
1111 1 1.7959980136691939e+01 8.0714200168275614e+00 4.4543805309024780e+00 0 0 0
1153 1 2.0647686253011248e+01 1.0814850009568685e+01 4.2573399533593443e+00 0 0 0
116 1 2.1902262696290897e+01 9.4828786841329276e+00 2.9370314104659445e+00 0 0 0
1120 1 2.4613628647233124e+01 9.3265273000217555e+00 5.8350183539429370e+00 0 0 0
1121 1 2.6002843532522323e+01 1.0710525421488024e+01 4.4834112316420667e+00 -1 0 0
1002 1 4.0288476150923963e-01 -4.0621824129955044e+00 5.7821204644262734e+00 0 0 0
1011 1 4.2900577717176667e+00 -2.7194586864180463e+00 7.0396803351778852e+00 0 0 0
1006 1 3.0651304499953578e+00 -4.0842187783179558e+00 8.5045162555223452e+00 0 0 0
1013 1 7.1826996095442937e+00 -5.5040928391097896e+00 6.9055529892246126e+00 0 0 0
1019 1 9.7707632442585268e+00 -2.8364737180689743e+00 6.9147244562416192e+00 0 0 0
1014 1 8.4403682523240526e+00 -4.0627765745042401e+00 8.3224734064822599e+00 0 0 0
2120 1 2.4767435116362702e+01 9.5026748436460746e+00 1.1044316519648612e+01 0 0 0
1022 1 1.3891487984757921e+01 -4.1510506020410016e+00 8.3239348427603623e+00 0 0 0
1027 1 1.5202423264210722e+01 -2.7481484243826122e+00 7.0654053334629987e+00 0 0 0
1026 1 1.6580886969501819e+01 -4.1056371211285567e+00 5.7110083537429359e+00 0 0 0
1030 1 1.9495230002193409e+01 -4.0411531706872115e+00 8.4706347584427668e+00 0 0 0
1034 1 2.2173837606445261e+01 -3.9875425550903985e+00 5.6920663049556106e+00 0 0 0
1035 1 2.0610422429617849e+01 -2.6788328308606446e+00 6.8407257625782085e+00 0 0 0
1038 1 2.4880253607216314e+01 -4.0977779360936690e+00 8.5193611440793813e+00 0 0 0
1003 1 -9.7202786713666356e-01 -2.7650321476796482e+00 7.0233805409588568e+00 0 0 0
1045 1 1.7037535945489446e+00 4.3853944913071333e-02 7.1342152955014830e+00 0 0 0
1004 1 3.8161903318126167e-01 -1.3138332422643757e+00 8.3442343571811488e+00 0 0 0
1053 1 7.0511141877470216e+00 -3.4323739209426107e-02 7.1434360551848277e+00 0 0 0
1012 1 5.7559083939807225e+00 -1.4808195750050319e+00 8.4353552957758744e+00 0 0 0
1020 1 1.1125674790294639e+01 -1.5879042088796298e+00 8.2983373502743678e+00 0 0 0
1061 1 1.2540865689253819e+01 -7.7942295619500071e-02 7.0385541929351083e+00 0 0 0
1028 1 1.6583165321658605e+01 -1.3519139197810579e+00 8.3089595756745265e+00 0 0 0
1069 1 1.7800218160311523e+01 9.8144349465259795e-02 6.8739821632584421e+00 0 0 0
1032 1 1.9158287153735504e+01 -1.3760344461396550e+00 5.6566673375498828e+00 0 0 0
1074 1 2.1933255924125309e+01 1.3896039367804058e+00 5.5889257514320949e+00 0 0 0
1036 1 2.2005955364319110e+01 -1.2826017792228834e+00 8.3090755860217005e+00 0 0 0
1077 1 2.3304995590970826e+01 2.0620429632125797e-01 6.9938786952439909e+00 0 0 0
1040 1 2.4817980858638261e+01 -1.2559222801496204e+00 5.7788378080091176e+00 0 0 0
1044 1 2.5785053405594371e-01 4.0116283647192157e+00 8.5209663964127920e+00 0 0 0
1051 1 4.3771302673661898e+00 2.7085421036208053e+00 7.1523614820028527e+00 0 0 0
1046 1 2.9623237152543589e+00 1.3470016874471811e+00 8.5344012882898834e+00 0 0 0
1050 1 5.6693453373285232e+00 1.2933610806059321e+00 5.8331787496006475e+00 0 0 0
1052 1 5.6751617793192519e+00 4.0554242883997906e+00 8.4521988766193026e+00 0 0 0
1059 1 9.8285193022697541e+00 2.5740475249417356e+00 6.9787164555923002e+00 0 0 0
1054 1 8.4332154629711713e+00 1.3256304757389787e+00 8.3709032710300395e+00 0 0 0
1060 1 1.1220223882259953e+01 3.9734936914458263e+00 8.3113609211697899e+00 0 0 0
1064 1 1.3961546758591826e+01 3.9242615456927434e+00 5.6734258410953933e+00 0 0 0
1062 1 1.3932752493288604e+01 1.3552219827049981e+00 8.4139399835005246e+00 0 0 0
1066 1 1.6462635742600188e+01 1.5590240132686650e+00 5.6337942006272188e+00 0 0 0
1067 1 1.5335882535642916e+01 2.7652427562832060e+00 7.2145939442322184e+00 0 0 0
1068 1 1.6582272539183382e+01 4.0248581651892801e+00 8.5944750371956395e+00 0 0 0
1072 1 1.9332704066146562e+01 4.1245633563529251e+00 5.6867457942653159e+00 0 0 0
1070 1 1.9145514250500661e+01 1.3262325918219637e+00 8.4103234678015983e+00 0 0 0
1075 1 2.0600896201241518e+01 2.7731427919603910e+00 6.9944848791267287e+00 0 0 0
1076 1 2.1950056132120036e+01 4.0331847972112147e+00 8.3878959762178269e+00 0 0 0
1080 1 2.4698544834751207e+01 4.1262188179773487e+00 5.8162786039322363e+00 0 0 0
1078 1 2.4709900077841631e+01 1.4267094720081304e+00 8.4897904424301025e+00 0 0 0
1043 1 2.6032354089479924e+01 2.7951343916528382e+00 7.1667453319173955e+00 -1 0 0
1082 1 3.2294567554165610e-01 6.7213351480190520e+00 5.7228886910866459e+00 0 0 0
1085 1 1.7012194163637382e+00 5.3471443258918603e+00 7.0684804037221651e+00 0 0 0
1091 1 4.3786378931284071e+00 7.9691575370266934e+00 7.0095463499728483e+00 0 0 0
1086 1 3.0516695051076335e+00 6.7832717200454820e+00 8.4341292664117624e+00 0 0 0
1090 1 5.7160177453135983e+00 6.6827426610647418e+00 5.6584721849051132e+00 0 0 0
1093 1 7.0168070815868244e+00 5.2642992745925268e+00 6.9519669393461117e+00 0 0 0
1099 1 9.7804319225447358e+00 7.9963275868988939e+00 7.0223001938386860e+00 0 0 0
1094 1 8.4849312465646225e+00 6.5859125196805515e+00 8.2460800335724134e+00 0 0 0
1098 1 1.1089493727162449e+01 6.7803415338545268e+00 5.7351873287353383e+00 0 0 0
1101 1 1.2460077722604996e+01 5.3707784262145202e+00 7.0488066732207715e+00 0 0 0
1102 1 1.3841644041115424e+01 6.5490769341212660e+00 8.4169261497479173e+00 0 0 0
1106 1 1.6625504690124387e+01 6.6310445274683287e+00 5.8028677374075324e+00 0 0 0
1109 1 1.7945133988633010e+01 5.3544970267097476e+00 7.1638272199253095e+00 0 0 0
1110 1 1.9314296268194148e+01 6.7341198566760951e+00 8.4868451965350307e+00 0 0 0
1114 1 2.2069691348311910e+01 6.8063054384638741e+00 5.7849560169338643e+00 0 0 0
1117 1 2.3339894508287717e+01 5.4175553398213889e+00 7.1424506931743483e+00 0 0 0
1118 1 2.4839745502579675e+01 6.6831444539798177e+00 8.3921757298039559e+00 0 0 0
1083 1 -1.0883998399266943e+00 8.0871081001899565e+00 7.0847416406656283e+00 0 0 0
1125 1 1.6112521770651129e+00 1.0774600280378857e+01 7.0681480640158476e+00 0 0 0
1084 1 2.7245050848054175e-01 9.3974375887224699e+00 8.4093045633671899e+00 0 0 0
1088 1 2.9522844730854039e+00 9.3674162456862380e+00 5.6536445249065714e+00 0 0 0
1133 1 7.0534034734997473e+00 1.0790850256753203e+01 6.9937702446972017e+00 0 0 0
1092 1 5.6970310942324458e+00 9.4077714155457191e+00 8.4143079239250032e+00 0 0 0
1096 1 8.4389717608131072e+00 9.3868294658918732e+00 5.6324714913391976e+00 0 0 0
1141 1 1.2515968295957583e+01 1.0734692395067679e+01 7.2372438642077919e+00 0 0 0
1100 1 1.0994399296355672e+01 9.4642099094969598e+00 8.4264684645232695e+00 0 0 0
1104 1 1.3890856893364731e+01 9.4137978788226047e+00 5.8863433236823157e+00 0 0 0
1107 1 1.5309750630651207e+01 7.9990396316259131e+00 7.2034254930595099e+00 0 0 0
1108 1 1.6514741805796788e+01 9.4407216280238426e+00 8.4662652054365566e+00 0 0 0
1149 1 1.7909089208954050e+01 1.0759089497331203e+01 7.1453176959644136e+00 0 0 0
1112 1 1.9363742148758519e+01 9.4957537238362733e+00 5.8175227899950741e+00 0 0 0
1115 1 2.0688309388407649e+01 8.1235368289913765e+00 7.0661514717572818e+00 0 0 0
1116 1 2.1954399551979208e+01 9.4917863274913472e+00 8.4485909920856592e+00 0 0 0
1157 1 2.3315388034262860e+01 1.0781476895178077e+01 7.0935766727524152e+00 0 0 0
2007 1 1.6213351984052486e+00 -2.6512887354206480e+00 9.7859920695480387e+00 0 0 0
2002 1 2.4613101282443614e-01 -4.0278508659345524e+00 1.1280591941771650e+01 0 0 0
2153 1 2.0633114212752300e+01 1.0973632173612359e+01 9.7151110050933571e+00 0 0 0
2003 1 -1.0594976454303779e+00 -2.6172596347339843e+00 1.2444117173828692e+01 0 0 0
2096 1 8.3962763370784224e+00 9.4208951167610753e+00 1.1016098777424814e+01 0 0 0
2015 1 7.1198908261164622e+00 -2.9063523488728675e+00 9.8427667398313901e+00 0 0 0
2010 1 5.7265767273460755e+00 -4.1603484553573180e+00 1.1117215627796686e+01 0 0 0
2017 1 9.8039753435895030e+00 -5.4957887128949743e+00 9.6571266732778529e+00 0 0 0
2023 1 1.2497623177060335e+01 -2.9253454364119071e+00 9.6823008815559479e+00 0 0 0
2018 1 1.1159255889453798e+01 -4.1606980410814529e+00 1.1044579784444483e+01 0 0 0
2025 1 1.5352624126202715e+01 -5.4931095015296441e+00 9.6021180497402536e+00 0 0 0
2026 1 1.6784632601340427e+01 -4.1587689481450081e+00 1.1013470705397575e+01 0 0 0
2031 1 1.8143231715260381e+01 -2.6248171191280134e+00 9.6673837506143219e+00 0 0 0
2034 1 2.1982817079254797e+01 -4.2261086567138708e+00 1.1030404531253350e+01 0 0 0
2039 1 2.3426276661505266e+01 -2.7438034397458271e+00 9.6622029423341189e+00 0 0 0
2042 1 3.2186167432040469e-01 1.3668435491904800e+00 1.1086238085224634e+01 0 0 0
2041 1 -9.9667172785847857e-01 -2.0105685393536871e-02 9.8113120947752339e+00 0 0 0
2049 1 4.3499013012076668e+00 1.5796112258489519e-02 9.7865291067988878e+00 0 0 0
2008 1 2.9979980648345150e+00 -1.4857135257848417e+00 1.1127021588530765e+01 0 0 0
2057 1 9.7501665224367660e+00 -1.1023140984086038e-01 9.5925596141955793e+00 0 0 0
2016 1 8.4080790152141809e+00 -1.3851845525367992e+00 1.1083003666416767e+01 0 0 0
2024 1 1.3937364353888073e+01 -1.4835693938333037e+00 1.1046673067043935e+01 0 0 0
2065 1 1.5310168859675631e+01 1.2438776751216352e-02 9.7451559874310085e+00 0 0 0
2066 1 1.6549766782084607e+01 1.3991659053839163e+00 1.1211845350747584e+01 0 0 0
2032 1 1.9363234219215951e+01 -1.3908565574591818e+00 1.1195542219844883e+01 0 0 0
2073 1 2.0637021512976265e+01 4.3043935913829337e-02 9.7204843928141376e+00 0 0 0
2040 1 2.4739056994061791e+01 -1.3803388041603981e+00 1.1055068990144596e+01 0 0 0
2047 1 1.6863681634214760e+00 2.7005077689469781e+00 9.8663471904788445e+00 0 0 0
2043 1 -1.0610500428126663e+00 2.5002201491003313e+00 1.2433093329893193e+01 0 0 0
2048 1 3.0709624259155941e+00 4.1252456508583686e+00 1.1148387556506741e+01 0 0 0
2055 1 7.0542892011129252e+00 2.7232922834007911e+00 9.7153616378936949e+00 0 0 0
2050 1 5.7888770635716291e+00 1.3517907981139108e+00 1.1188531811664305e+01 0 0 0
2056 1 8.5502618827142189e+00 4.0162834865485557e+00 1.1072160133354783e+01 0 0 0
2137 1 9.6046111895650572e+00 1.0946730979478195e+01 9.7614629988731654e+00 0 0 0
2058 1 1.1083159783296152e+01 1.3555536410876996e+00 1.1102429834487369e+01 0 0 0
2064 1 1.3896463631347117e+01 3.9235485164069162e+00 1.1243767903514181e+01 0 0 0
2063 1 1.2584293884956141e+01 2.6612087828081781e+00 9.7536126923405870e+00 0 0 0
2071 1 1.7978379631636297e+01 2.6808381214061767e+00 9.9365032051437225e+00 0 0 0
2072 1 1.9469467477610689e+01 3.9726043743303956e+00 1.1261665042769133e+01 0 0 0
2074 1 2.2062418796826762e+01 1.3963458897144090e+00 1.1073377475585259e+01 0 0 0
2079 1 2.3459656819505952e+01 2.9029230635705354e+00 9.8592808261849214e+00 0 0 0
2080 1 2.4858158004918128e+01 4.1372925465831054e+00 1.1267260717596272e+01 0 0 0
2082 1 1.7246995376181917e-01 6.8494945833930458e+00 1.1242079049921504e+01 0 0 0
2081 1 2.6102342976381699e+01 5.4123819198485066e+00 9.7919018564724425e+00 -1 0 0
2089 1 4.4346103768048852e+00 5.4181444167072428e+00 9.8204241512343113e+00 0 0 0
2090 1 5.7279947446914328e+00 6.7236301854027740e+00 1.1050783796660451e+01 0 0 0
2097 1 9.9222002122915551e+00 5.3712401034555199e+00 9.7132632840412967e+00 0 0 0
2098 1 1.1214125935157570e+01 6.7263907056416317e+00 1.1061204761144852e+01 0 0 0
2105 1 1.5204550682901322e+01 5.2850395332820082e+00 9.9079162809167389e+00 0 0 0
2106 1 1.6749018160353952e+01 6.7512807546238971e+00 1.1120203881232634e+01 0 0 0
2111 1 1.8034686581734523e+01 8.1682322439555275e+00 9.8592161734631798e+00 0 0 0
2113 1 2.0775725312091051e+01 5.4616280215654474e+00 9.8520149813720330e+00 0 0 0
2114 1 2.2201150790288956e+01 6.7785979027699490e+00 1.1267747958694695e+01 0 0 0
2119 1 2.3488669261625226e+01 8.1150811665236660e+00 9.7146427347524469e+00 0 0 0
2095 1 7.0723260312906850e+00 7.9662026211461106e+00 9.5532246316922382e+00 0 0 0
2087 1 1.5981432480254252e+00 8.2060926019025171e+00 9.8222602177017269e+00 0 0 0
2129 1 4.3006252633057835e+00 1.0777723189489009e+01 9.7798881362265266e+00 0 0 0
2088 1 2.8801299813144112e+00 9.4980491767462727e+00 1.1256499432577426e+01 0 0 0
2019 1 9.9245563526224068e+00 -2.6169502779300631e+00 1.2390755609005796e+01 0 0 0
2027 1 1.5381709672383046e+01 -2.7455540469128903e+00 1.2365059473674084e+01 0 0 0
2035 1 2.0679281251477121e+01 -2.8476758579404695e+00 1.2435442082322011e+01 0 0 0
2045 1 1.6341828638797338e+00 -7.8036433824772780e-02 1.2452152225726643e+01 0 0 0
2053 1 7.0546341572991391e+00 -7.3443602293980670e-02 1.2461771260954436e+01 0 0 0
2061 1 1.2637675377385985e+01 -6.7704054736170026e-03 1.2433444094488413e+01 0 0 0
2069 1 1.7995861696050046e+01 -3.1933103414773144e-02 1.2485062715662119e+01 0 0 0
2077 1 2.3344562776638394e+01 -1.2339103316199136e-01 1.2391400152530053e+01 0 0 0
2051 1 4.3528047403256469e+00 2.6737189775029901e+00 1.2472407962048209e+01 0 0 0
2085 1 1.6654716884494594e+00 5.3501262651070371e+00 1.2496829189227924e+01 0 0 0
2099 1 9.8795768593071163e+00 8.0290798713899623e+00 1.2408745815741266e+01 0 0 0
2101 1 1.2639892644468208e+01 5.3527943776702234e+00 1.2408421167374163e+01 0 0 0
2109 1 1.8034970673552518e+01 5.3312010969486048e+00 1.2486110814344663e+01 0 0 0
2091 1 4.2507921075547141e+00 8.0389958081326114e+00 1.2421747435839345e+01 0 0 0
2133 1 6.9171791665401043e+00 1.0707309750730113e+01 1.2420375669779672e+01 0 0 0
2149 1 1.7876794055270366e+01 1.0816088679955040e+01 1.2458475100031446e+01 0 0 0
2157 1 2.3300607384915384e+01 1.0865133135360018e+01 1.2411383131619981e+01 0 0 0
55 1 7.0548974905564927e+00 2.6962032975658925e+00 -1.0924807843875541e+00 0 0 0
119 1 2.3331855939426262e+01 8.0273620926243670e+00 -1.0910244953424630e+00 0 0 0
97 1 9.8808691024586182e+00 5.4509366943572779e+00 -1.0569355967438163e+00 0 0 0
3007 1 1.5759476166083211e+00 -2.7662309290546583e+00 1.5198687276363884e+01 0 0 0
3001 1 -1.0295854281723125e+00 -5.4831041601866612e+00 1.5150045199261410e+01 0 0 0
2006 1 2.9852128482132798e+00 -4.1919699423069821e+00 1.3890554219528815e+01 0 0 0
3015 1 7.0603404582797200e+00 -2.7669924348580155e+00 1.5259679905750836e+01 0 0 0
2014 1 8.5981427682845961e+00 -3.8868666905782221e+00 1.3802224249735453e+01 0 0 0
4029 1 1.7964570452191197e+01 -5.4097971994828526e+00 2.3402306614906273e+01 0 0 0
3017 1 9.8821923963144869e+00 -5.4651125944029273e+00 1.4989619505795947e+01 0 0 0
2022 1 1.3902356336831275e+01 -4.1490480433903230e+00 1.3745404998636376e+01 0 0 0
3023 1 1.2465785106555694e+01 -2.8797617294277407e+00 1.5094808439612006e+01 0 0 0
3037 1 2.3383769030575447e+01 -5.4389126545107160e+00 1.7843367480693065e+01 0 0 0
2030 1 1.9401692704127456e+01 -4.2564834593157981e+00 1.3846009063772186e+01 0 0 0
3031 1 1.8093550592183920e+01 -2.7326791396993886e+00 1.5198179878545245e+01 0 0 0
3029 1 1.8040766699114187e+01 -5.3914546403265149e+00 1.8098618762819470e+01 0 0 0
2037 1 2.3412446342963591e+01 -5.4613342845819499e+00 1.2555285317880021e+01 0 0 0
2038 1 2.4881319425742703e+01 -3.9994852322495245e+00 1.3751212603239733e+01 0 0 0
3039 1 2.3539326933627283e+01 -2.7499270903697135e+00 1.5179852091782317e+01 0 0 0
4037 1 2.3438763921520124e+01 -5.4224253694223705e+00 2.3427184117641080e+01 0 0 0
2004 1 2.4442297489930018e-01 -1.3450679172192614e+00 1.3852326847332584e+01 0 0 0
3041 1 2.6100365445556214e+01 8.1856003295291899e-02 1.5349552774287645e+01 -1 0 0
2046 1 2.8715337570990882e+00 1.2944040652250655e+00 1.3829838736285911e+01 0 0 0
3049 1 4.3569465029397572e+00 -2.0851566666974884e-02 1.5107141332602199e+01 0 0 0
2012 1 5.7115918891636728e+00 -1.4036987729924810e+00 1.3816246019422808e+01 0 0 0
3033 1 2.0724939495908416e+01 -5.5177610525225305e+00 1.5215104496805605e+01 0 0 0
2054 1 8.4039606793070565e+00 1.4505022378905188e+00 1.3709828420336949e+01 0 0 0
3057 1 9.7357779359708552e+00 7.8811471775553310e-02 1.5070188629602438e+01 0 0 0
2020 1 1.1259198627775071e+01 -1.3174136303529014e+00 1.3799031272120764e+01 0 0 0
2062 1 1.3953808029405248e+01 1.2867368849296479e+00 1.4004457152159217e+01 0 0 0
4116 1 2.2013321232896718e+01 9.5334645752349001e+00 2.4810758861699412e+01 0 0 0
2028 1 1.6665481892117320e+01 -1.4460378538500789e+00 1.3806929996248769e+01 0 0 0
3065 1 1.5355096744159322e+01 -1.1334056021856585e-01 1.5187306751180687e+01 0 0 0
111 1 1.7933062441987648e+01 8.0664598025798799e+00 2.6030222964752326e+01 0 0 -1
2070 1 1.9442260347344988e+01 1.2727862319054908e+00 1.3822317542929991e+01 0 0 0
2036 1 2.2071867039160065e+01 -1.4994720474393537e+00 1.3771627354467899e+01 0 0 0
3073 1 2.0881170381822091e+01 -4.2912035866033683e-02 1.5194842508759207e+01 0 0 0
4149 1 1.7886436220758075e+01 1.0851324748430278e+01 2.3348840976479032e+01 0 0 0
2044 1 2.8443356220181026e-01 3.8755275266946656e+00 1.3732240741717748e+01 0 0 0
3047 1 1.6564962891319830e+00 2.6839135058278569e+00 1.5283163458280150e+01 0 0 0
4108 1 1.6526489683313621e+01 9.3586844467289723e+00 2.4651691097881386e+01 0 0 0
2052 1 5.7806987314253995e+00 4.1569262960710969e+00 1.3726860013000916e+01 0 0 0
3055 1 7.1225805059765559e+00 2.7950958577406757e+00 1.5101879059644052e+01 0 0 0
2060 1 1.1221565967662647e+01 4.1931497030137619e+00 1.3934972288474057e+01 0 0 0
3063 1 1.2565382125569883e+01 2.7406328034982823e+00 1.5240091580233042e+01 0 0 0
2067 1 1.5239976089428966e+01 2.6065708027159489e+00 1.2569587621772481e+01 0 0 0
2068 1 1.6650184535221165e+01 4.0301787455112033e+00 1.3895184375904650e+01 0 0 0
3071 1 1.8061894495550987e+01 2.6921533704271932e+00 1.5204480535055062e+01 0 0 0
2075 1 2.0749580090408511e+01 2.6974133636297970e+00 1.2580683436105797e+01 0 0 0