LAMMPS data file via write_data, version 30 Jul 2016, timestep = 50000

5000 atoms
1 atom types

-1.1037168688014471e+00 2.6103716868801385e+01 xlo xhi
-5.5185843440072304e+00 1.3051858434400725e+02 ylo yhi
-1.1037168688014471e+00 2.6103716868801385e+01 zlo zhi

Masses

1 28.0855

Atoms # atomic

2 1 2.1536544178594497e-01 -4.1549287065518063e+00 2.9008461141614533e-01 0 0 0
3 1 2.6081382383596466e+01 -2.7219638221803071e+00 1.6634972027363251e+00 -1 0 0
7 1 1.7291506346424406e+00 -2.8020211525859926e+00 -1.0054218972266584e+00 0 0 0
11 1 4.2932397341693243e+00 -2.5282208001434565e+00 1.6699532263282846e+00 0 0 0
10 1 5.6276651669540900e+00 -3.9301032910109210e+00 3.9923260837623425e-01 0 0 0
15 1 7.0990716132035026e+00 -2.6092942555721632e+00 -1.0205040166101129e+00 0 0 0
19 1 9.9052836501789905e+00 -2.7942341211164918e+00 1.6344501741850723e+00 0 0 0
1029 1 1.8042591584073381e+01 -5.5109348963039508e+00 7.2427357373819996e+00 0 0 0
18 1 1.1245860215500356e+01 -4.0571343183253461e+00 3.6290600141659901e-01 0 0 0
23 1 1.2475992256150908e+01 -2.7702587719636353e+00 -1.0118114783310419e+00 0 0 0
27 1 1.5156688500280328e+01 -2.8187916821060277e+00 1.5659499504044962e+00 0 0 0
26 1 1.6597921652355954e+01 -4.0198780241762089e+00 2.4169512066147872e-01 0 0 0
1005 1 1.6712076871656589e+00 -5.3041176377714692e+00 7.1248990069655500e+00 0 0 0
34 1 2.2130547849684845e+01 -4.1429926544731526e+00 5.0717324559507937e-01 0 0 0
35 1 2.0714635198641506e+01 -2.7248639674400135e+00 1.6207629528163967e+00 0 0 0
39 1 2.3389284401039799e+01 -2.8234817465590574e+00 -9.8943900656065997e-01 0 0 0
41 1 2.6099136508869048e+01 -9.9075634146917571e-02 -1.0264433136311921e+00 -1 0 0
45 1 1.5404488322966772e+00 -1.9328797272195459e-02 1.6699702724792653e+00 0 0 0
49 1 4.3050395387230118e+00 -7.1866256163473502e-02 -1.0307621653909915e+00 0 0 0
8 1 2.9035353978537897e+00 -1.2281594173155752e+00 2.7611295911420208e-01 0 0 0
53 1 7.0626114084494738e+00 8.8262387359534275e-02 1.6967645394409108e+00 0 0 0
50 1 5.6426111917600705e+00 1.3909069793013296e+00 3.8477822776170861e-01 0 0 0
16 1 8.4944109660038531e+00 -1.2934740533212170e+00 4.5844241848738349e-01 0 0 0
57 1 9.8725701346613732e+00 -6.5445421993260824e-02 -1.0358572983130832e+00 0 0 0
58 1 1.1256935029225186e+01 1.2837823777898136e+00 2.5314966234484632e-01 0 0 0
24 1 1.3794368310958777e+01 -1.4394347078859531e+00 3.0851917162819131e-01 0 0 0
61 1 1.2510395118777813e+01 -1.5844448228370270e-01 1.6898000237916284e+00 0 0 0
66 1 1.6591468849269503e+01 1.2180944539391458e+00 1.6319257910602666e-01 0 0 0
1025 1 1.5225418592502187e+01 -5.5015729110572238e+00 4.5313842632084418e+00 0 0 0
69 1 1.7866859224430303e+01 -1.2316381153215741e-01 1.5666374026322414e+00 0 0 0
32 1 1.9238496498571980e+01 -1.4686926474493167e+00 2.0218904066605278e-01 0 0 0
73 1 2.0592617015577346e+01 -4.5172202313570289e-02 -1.0218465315694025e+00 0 0 0
77 1 2.3307739517282062e+01 5.9671028073731952e-02 1.6618854023808243e+00 0 0 0
40 1 2.4712903771840811e+01 -1.4294833781668632e+00 3.5635775269050968e-01 0 0 0
42 1 1.7076686232548322e-01 1.2800940500718765e+00 2.7322402072737684e-01 0 0 0
47 1 1.4756933400474090e+00 2.6936941857996781e+00 -1.0653941243038456e+00 0 0 0
51 1 4.2483939146374317e+00 2.7372568539300377e+00 1.6061744450794717e+00 0 0 0
48 1 2.8708411899110238e+00 4.1161380015839901e+00 2.7863011273855409e-01 0 0 0
56 1 8.5194267824839578e+00 3.9490718521358956e+00 2.4647863483784807e-01 0 0 0
59 1 9.9308071892598502e+00 2.5710228854389059e+00 1.6108750391543925e+00 0 0 0
64 1 1.3857489245559419e+01 3.9650034271442260e+00 1.9975166171072753e-01 0 0 0
67 1 1.5224891067652717e+01 2.6189800419648228e+00 1.5396628427230201e+00 0 0 0
72 1 1.9367762752248019e+01 4.0709153998046821e+00 4.6145420916877117e-01 0 0 0
71 1 1.7914040312684826e+01 2.7582540404079570e+00 -1.0412192928419872e+00 0 0 0
74 1 2.1899681106674635e+01 1.3805685196115258e+00 2.8029615686804460e-01 0 0 0
75 1 2.0653407366883034e+01 2.6612041745092103e+00 1.8346733889460434e+00 0 0 0
79 1 2.3394643745765116e+01 2.6075204580779539e+00 -1.0719569233579500e+00 0 0 0
80 1 2.4669501911963700e+01 3.9705655628657937e+00 3.1740515149559129e-01 0 0 0
43 1 2.6095567420845764e+01 2.6191443063736894e+00 1.7017351155378078e+00 -1 0 0
82 1 2.7658564936011737e-01 6.8753757302308944e+00 2.3765926913164312e-01 0 0 0
85 1 1.4855574942703214e+00 5.5235180647300330e+00 1.6904890386701217e+00 0 0 0
87 1 1.6812474164398206e+00 8.0919155135546337e+00 -1.0852928545487146e+00 0 0 0
1009 1 4.3719651444781906e+00 -5.4992914333610372e+00 4.3404944976592956e+00 0 0 0
91 1 4.2750168131001214e+00 8.0871841829716118e+00 1.6652542685373182e+00 0 0 0
90 1 5.6292230358695745e+00 6.6616004846196484e+00 3.7066382503761169e-01 0 0 0
93 1 7.1499899211200946e+00 5.2982073005967507e+00 1.7026024883269866e+00 0 0 0
98 1 1.1103203427103315e+01 6.6305483377454042e+00 3.1902311639117586e-01 0 0 0
101 1 1.2503920256429049e+01 5.3275470241115581e+00 1.7132476451630003e+00 0 0 0
106 1 1.6621622467455612e+01 6.7172697260580305e+00 2.3316635254006840e-01 0 0 0
37 1 2.3695835393666293e+01 -5.5142270294878699e+00 1.7617125062807817e+00 0 0 0
109 1 1.7958066709438157e+01 5.3963973786173405e+00 1.7155727033107873e+00 0 0 0
114 1 2.2038055648874174e+01 6.7633770012150753e+00 1.9835415130552606e-01 0 0 0
115 1 2.0777976752915105e+01 8.0793423361894678e+00 1.6563456233804175e+00 0 0 0
113 1 2.0587756039936174e+01 5.4074754781600873e+00 -1.0948729327671631e+00 0 0 0
117 1 2.3298720353009898e+01 5.3930436596567199e+00 1.6043543374123745e+00 0 0 0
81 1 2.6058144367711105e+01 5.4497427015849764e+00 -1.0175575819738740e+00 -1 0 0
125 1 1.6467712731569530e+00 1.0771583604305453e+01 1.5787909256820771e+00 0 0 0
88 1 3.0022707000401092e+00 9.4550889827134750e+00 2.7139369180054934e-01 0 0 0
2029 1 1.8075124830285471e+01 -5.5184497233541094e+00 1.2448798656379441e+01 0 0 0
133 1 6.9238991305078059e+00 1.0707166994357912e+01 1.7300280438477871e+00 0 0 0
99 1 9.8744164513913919e+00 8.0123619592500912e+00 1.6454770172802016e+00 0 0 0
96 1 8.4691659496980431e+00 9.4310557124352510e+00 4.4326100920935291e-01 0 0 0
33 1 2.0790846444959609e+01 -5.4709529138259256e+00 -8.4584270137651218e-01 0 0 0
29 1 1.7902760077020595e+01 -5.3879152158206693e+00 1.6792031256424942e+00 0 0 0
104 1 1.3734921416276890e+01 9.4481155015637075e+00 2.1434175425338151e-01 0 0 0
141 1 1.2525894595622333e+01 1.0831818229396305e+01 1.6509786848855681e+00 0 0 0
107 1 1.5173646731185086e+01 8.1499164629385614e+00 1.5607917765327071e+00 0 0 0
145 1 1.5077490834392878e+01 1.0769623988982785e+01 -1.0845249207506169e+00 0 0 0
149 1 1.7925388897583563e+01 1.0754304060078455e+01 1.5044700042265158e+00 0 0 0
112 1 1.9309589121405274e+01 9.4816699165708656e+00 2.1012362611090690e-01 0 0 0
157 1 2.3266461643766522e+01 1.0800593538229853e+01 1.5263191457191390e+00 0 0 0
120 1 2.4723041173006408e+01 9.4777472016988238e+00 2.2084673294841201e-01 0 0 0
83 1 2.6008707197551036e+01 8.0565008458471468e+00 1.5666895268490488e+00 -1 0 0
25 1 1.5284172972223999e+01 -5.3949741185779772e+00 -1.0075639977816171e+00 0 0 0
1007 1 1.6942418371631882e+00 -2.7105838513847531e+00 4.3517841772209707e+00 0 0 0
6 1 3.0526399823382580e+00 -4.1350472824233062e+00 2.9658486240429554e+00 0 0 0
1015 1 7.0058856546960406e+00 -2.6683181366132906e+00 4.5774740669743839e+00 0 0 0
1010 1 5.5124128924689195e+00 -4.1385483504441050e+00 5.7327061829220538e+00 0 0 0
14 1 8.3864298281266674e+00 -3.9628128150325184e+00 3.1097229263460626e+00 0 0 0
1017 1 9.8136929951104861e+00 -5.4818100792605389e+00 4.3677566619413426e+00 0 0 0
1018 1 1.1142814905946821e+01 -4.1477159516444493e+00 5.7678509302080156e+00 0 0 0
22 1 1.3838545801514508e+01 -3.9902339282614157e+00 3.0721401161213118e+00 0 0 0
1023 1 1.2569040915857030e+01 -2.7442009466820481e+00 4.4716271507197503e+00 0 0 0
1031 1 1.7945416235602348e+01 -2.7344266922155804e+00 4.3481854279418615e+00 0 0 0
30 1 1.9441270726738740e+01 -4.1477528438807401e+00 3.0151991899769337e+00 0 0 0
1033 1 2.0718847530455943e+01 -5.4785790070819536e+00 4.5309275045041097e+00 0 0 0
38 1 2.4881158669436992e+01 -4.0957367582136133e+00 3.2008230700572766e+00 0 0 0
1039 1 2.3418965803683395e+01 -2.6664116819611299e+00 4.3667238030898634e+00 0 0 0
4 1 2.1430085449478931e-01 -1.2792410724058079e+00 3.0171294844608894e+00 0 0 0
1042 1 3.2522392666817679e-01 1.4154763023692611e+00 5.8460713431588136e+00 0 0 0
1049 1 4.3756670686676511e+00 4.0892800350962703e-03 4.3876136383336268e+00 0 0 0
1008 1 3.0202011835795703e+00 -1.3102817187790630e+00 5.7078778112860098e+00 0 0 0
12 1 5.6978042480026705e+00 -1.2837185368497357e+00 3.1771425972507958e+00 0 0 0
54 1 8.4844724580978248e+00 1.3976565406198662e+00 3.0267561590841559e+00 0 0 0
1057 1 9.8044511591156311e+00 -2.9754383674329254e-02 4.2878525242650580e+00 0 0 0
1016 1 8.5183620296739626e+00 -1.3080553255561171e+00 5.7024480054264277e+00 0 0 0
20 1 1.1256304799779507e+01 -1.4445673906215410e+00 3.0650773432666236e+00 0 0 0
1058 1 1.1112379257596581e+01 1.2622551511521571e+00 5.6397331963995851e+00 0 0 0
1024 1 1.3883403651180711e+01 -1.4212992099519495e+00 5.7750903907125712e+00 0 0 0
1065 1 1.5232115019952360e+01 3.6686512190902687e-02 4.2837618707508280e+00 0 0 0
28 1 1.6563377668526307e+01 -1.3864893207545845e+00 2.9566508956931385e+00 0 0 0
1073 1 2.0631806223631404e+01 -1.1978886861117613e-01 4.5400884340362069e+00 0 0 0
36 1 2.2053472113707528e+01 -1.3043443256141583e+00 3.0122060476059107e+00 0 0 0
1041 1 2.6016096597281496e+01 6.1701935274279404e-02 4.4130752459695914e+00 -1 0 0
78 1 2.4506544573187920e+01 1.4362032069093891e+00 3.1098301124843832e+00 0 0 0
44 1 1.9320561668564851e-01 4.1015410088335829e+00 3.0041186256337009e+00 0 0 0
1047 1 1.6876008693243882e+00 2.6564760636723794e+00 4.3508489925991825e+00 0 0 0
46 1 2.9274607543026816e+00 1.3161362317285956e+00 3.0518163411777919e+00 0 0 0
1048 1 3.1131145538029101e+00 4.0426316469236054e+00 5.6376594341882020e+00 0 0 0
52 1 5.7700075366555685e+00 3.9656647545080754e+00 2.9580387626959479e+00 0 0 0
1055 1 7.0803896278706295e+00 2.6513575983617947e+00 4.4006071024701177e+00 0 0 0
1056 1 8.3980978272083302e+00 4.0464442555276490e+00 5.7618054496899829e+00 0 0 0
60 1 1.1157266983920165e+01 3.9894410138934981e+00 3.1200188521689753e+00 0 0 0
62 1 1.3955801322623538e+01 1.1996829111700120e+00 2.8721096923700973e+00 0 0 0
1063 1 1.2522795365373961e+01 2.5774652822224766e+00 4.3333995373701821e+00 0 0 0
68 1 1.6593889718626482e+01 3.9091503899178845e+00 3.0547646578906718e+00 0 0 0
1071 1 1.7900622570096196e+01 2.7368067059143710e+00 4.4530688573186623e+00 0 0 0
70 1 1.9303896172849505e+01 1.1765201357444905e+00 3.1261797497725752e+00 0 0 0
76 1 2.2020081115618133e+01 4.0331628014319687e+00 3.0495694308959131e+00 0 0 0
1079 1 2.3276404122015848e+01 2.7054189512952886e+00 4.4972929584432420e+00 0 0 0
1087 1 1.5078143506598130e+00 8.1209242966876776e+00 4.3729956288245759e+00 0 0 0
1089 1 4.3900891488369407e+00 5.2973308923017255e+00 4.1612440846714218e+00 0 0 0
86 1 2.9394350567014613e+00 6.6997107220683674e+00 3.1075758772483728e+00 0 0 0
94 1 8.4577771826303074e+00 6.7411893537413503e+00 3.0664440798204513e+00 0 0 0
1097 1 9.7365572959953024e+00 5.3833092540772709e+00 4.3659031109277606e+00 0 0 0
1103 1 1.2422341742557506e+01 8.0617691610767324e+00 4.4587446670257593e+00 0 0 0
102 1 1.3828304675007249e+01 6.7937744094871251e+00 2.9273417139945628e+00 0 0 0
1105 1 1.5232533766830215e+01 5.3792323330966703e+00 4.3193891344900130e+00 0 0 0
110 1 1.9376939399721316e+01 6.7527878445579388e+00 3.0334218272543105e+00 0 0 0
1113 1 2.0672380622670829e+01 5.4671146446497341e+00 4.4161801860365637e+00 0 0 0
118 1 2.4672937231830328e+01 6.6873627129101960e+00 3.0043895541511132e+00 0 0 0
1119 1 2.3195036653912574e+01 8.0261548033617345e+00 4.3129396726896490e+00 0 0 0
1081 1 2.6012536547987697e+01 5.3412671829664733e+00 4.3595454660607809e+00 -1 0 0
84 1 2.3583000371101337e-01 9.3771706349817094e+00 2.9526114560490431e+00 0 0 0
1129 1 4.2326857999001373e+00 1.0802067576887206e+01 4.4278813950155200e+00 0 0 0
1095 1 7.0617284611068065e+00 7.8638501925612205e+00 4.5277300752639524e+00 0 0 0
92 1 5.7106699971166952e+00 9.2462726446260248e+00 3.2275300085649445e+00 0 0 0
1137 1 9.6331934735540425e+00 1.0749081899881279e+01 4.2874817865164605e+00 0 0 0
100 1 1.1193815379372406e+01 9.3895976157271264e+00 3.0163923412169433e+00 0 0 0
1145 1 1.5296168314908416e+01 1.0580826064608933e+01 4.4372246358456673e+00 0 0 0
108 1 1.6625392751170661e+01 9.3772130367484063e+00 2.8487381716186917e+00 0 0 0
1111 1 1.7949222826829644e+01 8.0121221751738378e+00 4.3697793581910691e+00 0 0 0
1153 1 2.0688113785674027e+01 1.0905805044048931e+01 4.2794213995931578e+00 0 0 0
116 1 2.1978708705808767e+01 9.5570890086597569e+00 2.9797673178202455e+00 0 0 0
1120 1 2.4666181316791711e+01 9.3527943440339190e+00 5.7177461112998147e+00 0 0 0
1121 1 2.5989344953757573e+01 1.0743659339047055e+01 4.4310618290185131e+00 -1 0 0
1002 1 3.8473775287009299e-01 -4.0997386545114747e+00 5.7368480380610922e+00 0 0 0
1011 1 4.2678148422109183e+00 -2.7546170532373861e+00 7.1740130348076709e+00 0 0 0
1006 1 2.9837568658074853e+00 -4.0556648989469695e+00 8.4900416668261247e+00 0 0 0
1013 1 6.9280235706222957e+00 -5.4834535004483893e+00 7.0826125421872277e+00 0 0 0
1019 1 9.7044994393015589e+00 -2.8889496971582465e+00 6.9648925771679062e+00 0 0 0
1014 1 8.3756515448682975e+00 -4.2146042659400509e+00 8.4282196834628600e+00 0 0 0
1021 1 1.2592608311847581e+01 -5.4588831684845083e+00 6.9804151296539505e+00 0 0 0
1022 1 1.3980139880608760e+01 -4.1718195934499525e+00 8.3634534254871795e+00 0 0 0
1027 1 1.5361092966475827e+01 -2.7746905102688317e+00 7.0893768280443155e+00 0 0 0
1026 1 1.6747259781860265e+01 -4.1838611900828688e+00 5.8322521656719406e+00 0 0 0
1030 1 1.9416526292702745e+01 -4.1253198988862936e+00 8.5599699771365287e+00 0 0 0
1034 1 2.2062779160100369e+01 -4.0319280509477693e+00 5.8011108701768386e+00 0 0 0
1035 1 2.0628925773847953e+01 -2.7197553803919781e+00 7.1381229773723893e+00 0 0 0
1038 1 2.4730043426120790e+01 -4.1983382115073349e+00 8.4624320578691741e+00 0 0 0
1003 1 -1.1029076011405934e+00 -2.7096541383717443e+00 7.0778828836870673e+00 0 0 0
1045 1 1.7410145705652604e+00 5.6416445205001976e-02 7.1918461991353055e+00 0 0 0
1004 1 3.5523556331801509e-01 -1.4732706779025158e+00 8.4183144613694658e+00 0 0 0
1053 1 7.1447442097141911e+00 -1.2531029346488540e-01 7.1119158505336264e+00 0 0 0
1012 1 5.8014964400912339e+00 -1.4149313977225106e+00 8.5550123328359096e+00 0 0 0
1020 1 1.1197650995615593e+01 -1.6276252236470414e+00 8.3034043174425651e+00 0 0 0
1061 1 1.2415713995716825e+01 -9.1252786714488832e-02 7.0568583494046635e+00 0 0 0
1028 1 1.6656369176704597e+01 -1.3501609188571175e+00 8.4928090500160085e+00 0 0 0
1069 1 1.8033833128933463e+01 7.3369146906910904e-02 7.1088685040901494e+00 0 0 0
1032 1 1.9258726603956131e+01 -1.3983954114582819e+00 5.7640033146569047e+00 0 0 0
1074 1 2.1948583766587792e+01 1.2732617349339252e+00 5.8105453815663122e+00 0 0 0
1036 1 2.2096480996686040e+01 -1.4134526824617351e+00 8.4325468905521994e+00 0 0 0
1077 1 2.3461604475353379e+01 8.9826439707476752e-02 7.1211394307963838e+00 0 0 0
1040 1 2.4743053399274590e+01 -1.2652413505434505e+00 5.7866635031709901e+00 0 0 0
1044 1 3.6132795461848810e-01 3.9692512358721332e+00 8.3423377089255482e+00 0 0 0
1051 1 4.5432227557623150e+00 2.6162714361480868e+00 7.0839041175552255e+00 0 0 0
1046 1 3.2101312589218036e+00 1.2843053899901120e+00 8.5390771496154620e+00 0 0 0
1050 1 5.7690994502214794e+00 1.2164932324401392e+00 5.8192084231097327e+00 0 0 0
1052 1 5.7873223530686131e+00 4.0075765973917301e+00 8.4981180782489680e+00 0 0 0
1059 1 9.8345215724678194e+00 2.5641481401721093e+00 7.1474303600406373e+00 0 0 0
1054 1 8.5077433760685608e+00 1.2585187580250610e+00 8.4526266827820553e+00 0 0 0
1060 1 1.1258177794337250e+01 3.9855120377713491e+00 8.3240630968443590e+00 0 0 0
1064 1 1.4016979420364503e+01 3.9300358610414032e+00 5.6152439058021262e+00 0 0 0
1062 1 1.3853853119820027e+01 1.2669216439592128e+00 8.3497568217452951e+00 0 0 0
1066 1 1.6481969763103983e+01 1.4584731023398712e+00 5.6783602926494749e+00 0 0 0
1067 1 1.5159140241598736e+01 2.6335739430279239e+00 7.1168300007972798e+00 0 0 0
1068 1 1.6678552575939932e+01 3.9879997230738700e+00 8.4368745662537865e+00 0 0 0
1072 1 1.9272715110060417e+01 4.0588318135592267e+00 5.7853697493641123e+00 0 0 0
1070 1 1.9371134669798625e+01 1.2996848939950318e+00 8.5503971172201592e+00 0 0 0
1075 1 2.0479837961383492e+01 2.6572918050036689e+00 7.0111595046554500e+00 0 0 0
1076 1 2.2041237547710558e+01 4.0043176706107859e+00 8.4596283788168343e+00 0 0 0
1080 1 2.4606247734818023e+01 3.9897408303565731e+00 5.8006226949230522e+00 0 0 0
1078 1 2.4818348711957970e+01 1.3829345435202396e+00 8.3994089500259577e+00 0 0 0
1043 1 2.6069152119791237e+01 2.7730922984867665e+00 7.1287270283671473e+00 -1 0 0
1082 1 2.1871017004706333e-01 6.7274655980995979e+00 5.7265624158718502e+00 0 0 0
1085 1 1.7195827183076731e+00 5.3719357221975352e+00 7.0985381736082740e+00 0 0 0
1091 1 4.2701047442055815e+00 7.9990612802258880e+00 7.1543208852869364e+00 0 0 0
1086 1 2.8473048129193264e+00 6.7624662156525082e+00 8.4770704899774998e+00 0 0 0
1090 1 5.5596199390057803e+00 6.5975156333834724e+00 5.7649964374717726e+00 0 0 0
1093 1 7.0118160993587697e+00 5.4179839138605725e+00 7.0277530600704221e+00 0 0 0
1099 1 9.7124120864433952e+00 8.0106728286770590e+00 7.1501399526769083e+00 0 0 0
1094 1 8.3966886331456170e+00 6.5466716970856780e+00 8.4276752541973980e+00 0 0 0
1098 1 1.1034410548685416e+01 6.7079105035549142e+00 5.7366881749029046e+00 0 0 0
1101 1 1.2576440186592830e+01 5.2938361704063333e+00 6.9714418226154313e+00 0 0 0
1102 1 1.3968479098733619e+01 6.6336320993778255e+00 8.4051966270942167e+00 0 0 0
1106 1 1.6476389107539813e+01 6.7196605301552221e+00 5.7489096282071275e+00 0 0 0
1109 1 1.7960643109353025e+01 5.4039180774902835e+00 7.1741156731069298e+00 0 0 0
1110 1 1.9380932309477011e+01 6.8056081421749735e+00 8.4856337641595641e+00 0 0 0
1114 1 2.2016268093087188e+01 6.6997557715605147e+00 5.8610565887911976e+00 0 0 0
1117 1 2.3309825590416352e+01 5.3906867405970624e+00 7.1394430259548480e+00 0 0 0
1118 1 2.4652736788906264e+01 6.7451893850634548e+00 8.4356808243933408e+00 0 0 0
1083 1 2.6088850268778739e+01 8.0127252694836351e+00 7.0305340602333652e+00 -1 0 0
1125 1 1.4691372948340407e+00 1.0838190427680955e+01 7.0717803861548534e+00 0 0 0
1084 1 6.3535967342863514e-02 9.4411433385643555e+00 8.4503024667348381e+00 0 0 0
1088 1 2.9015885781907476e+00 9.4231447534773185e+00 5.7927861147760948e+00 0 0 0
1133 1 7.0184267488080874e+00 1.0794319774818410e+01 7.0842726242910636e+00 0 0 0
1092 1 5.6163775694339373e+00 9.3843256752094621e+00 8.3646145309504600e+00 0 0 0
1096 1 8.3219889910688725e+00 9.3552983768719269e+00 5.7681747559896914e+00 0 0 0
1141 1 1.2342812373137825e+01 1.0793403013604651e+01 7.0832175858439861e+00 0 0 0
1100 1 1.1042277654022081e+01 9.4658032522198070e+00 8.4913546075288142e+00 0 0 0
1104 1 1.3789449088157443e+01 9.3929349352824847e+00 5.8529520851824888e+00 0 0 0
1107 1 1.5145690358784030e+01 7.9837530062558173e+00 7.1597280741217837e+00 0 0 0
1108 1 1.6426319285754207e+01 9.4025388232604268e+00 8.5372194864341324e+00 0 0 0
1149 1 1.7899762441586923e+01 1.0701659253530147e+01 7.0661038024805300e+00 0 0 0
1112 1 1.9302484979180626e+01 9.4302507331458472e+00 5.6792554546986027e+00 0 0 0
1115 1 2.0771445805635114e+01 8.1596311892851556e+00 7.1478389408202414e+00 0 0 0
1116 1 2.2028532457038192e+01 9.4418744655412965e+00 8.5011513636255067e+00 0 0 0
1157 1 2.3261093952232439e+01 1.0792700720181157e+01 7.0343378999058865e+00 0 0 0
2007 1 1.5728282161677423e+00 -2.8460281001677190e+00 9.8264939697382871e+00 0 0 0
2002 1 3.3036856290674682e-01 -4.2568061961461492e+00 1.1077612489881071e+01 0 0 0
2121 1 2.6003987603296153e+01 1.0823892400426796e+01 9.7766010306580533e+00 -1 0 0
2003 1 -1.0198588567842561e+00 -2.7499932688948858e+00 1.2465065759565690e+01 0 0 0
21 1 1.2573919606620610e+01 -5.4554732306315543e+00 1.6630497412624372e+00 0 0 0
2015 1 7.0207108422883033e+00 -2.9821606618552732e+00 9.7833533561597132e+00 0 0 0
2010 1 5.5748345948194036e+00 -4.1411592541348057e+00 1.1262897638391676e+01 0 0 0
2120 1 2.4768544572853802e+01 9.4833711894440036e+00 1.1224043270750922e+01 0 0 0
2023 1 1.2629504196953286e+01 -2.8016440343147320e+00 9.8579086896427395e+00 0 0 0
2018 1 1.1199013211534572e+01 -4.2739419464018900e+00 1.1184570159401440e+01 0 0 0
2153 1 2.0724919330208536e+01 1.1007034182270736e+01 9.7472102420843179e+00 0 0 0
2026 1 1.6630137924354297e+01 -4.1898318113094168e+00 1.1092438585368164e+01 0 0 0
2031 1 1.8035168900257752e+01 -2.6894143520955649e+00 9.8059108370186827e+00 0 0 0
2034 1 2.2025079428626153e+01 -4.2029267613085866e+00 1.1228739566464556e+01 0 0 0
2039 1 2.3474584582208855e+01 -2.8467685560152050e+00 9.8816525912908659e+00 0 0 0
2042 1 3.6049860111003901e-01 1.2608035634660824e+00 1.1150401589868981e+01 0 0 0
2041 1 -9.1166042108175938e-01 7.7330951982331836e-02 9.7373325831749966e+00 0 0 0
2049 1 4.4245805246269310e+00 -1.2964978297802540e-01 9.9960907920235211e+00 0 0 0
2008 1 2.8567702422663981e+00 -1.5326502377714564e+00 1.1193813569396566e+01 0 0 0
2057 1 9.8746124837524860e+00 -2.1241044381323115e-01 9.6756225472976425e+00 0 0 0
2016 1 8.3855808019659577e+00 -1.4022412189084015e+00 1.1090762345699750e+01 0 0 0
2024 1 1.3973907604354217e+01 -1.3932655304048873e+00 1.1125278334745765e+01 0 0 0
2065 1 1.5240315540695525e+01 9.4637874136462741e-02 9.7340290145728350e+00 0 0 0
2066 1 1.6490494039885199e+01 1.3650507788106441e+00 1.1266538197080431e+01 0 0 0
2032 1 1.9388317944218592e+01 -1.3180926948922176e+00 1.1156372837107847e+01 0 0 0
2073 1 2.0913860227601710e+01 4.6392143269553467e-02 9.8271059713880007e+00 0 0 0
2040 1 2.4905329832457078e+01 -1.3180257309498096e+00 1.1145832416535541e+01 0 0 0
2047 1 1.7685565635732217e+00 2.7346865283246551e+00 9.8417038840402888e+00 0 0 0
13 1 7.1165964643359541e+00 -5.3720005432986682e+00 1.6087745558572204e+00 0 0 0
2048 1 3.0299088500588405e+00 4.0003806091022271e+00 1.1226726637089302e+01 0 0 0
2055 1 7.1628224148527959e+00 2.7099256410137587e+00 9.7434951091484070e+00 0 0 0
2050 1 5.7455182739320012e+00 1.3687244403973362e+00 1.1149878298598082e+01 0 0 0
2056 1 8.5294800639450603e+00 3.9778351625102908e+00 1.1244063461482618e+01 0 0 0
9 1 4.4189058780243817e+00 -5.4681197474688190e+00 -1.0341707397592756e+00 0 0 0
2058 1 1.1183870680823976e+01 1.3706240627091197e+00 1.1087226273748433e+01 0 0 0
2064 1 1.4036026522436886e+01 3.9381554223643072e+00 1.1071736714150653e+01 0 0 0
2063 1 1.2612214148107928e+01 2.6282755939403613e+00 9.7148400363526992e+00 0 0 0
2071 1 1.7883752724640946e+01 2.6858736630863587e+00 9.8439473139020812e+00 0 0 0
2072 1 1.9441404383248852e+01 3.9191446870283682e+00 1.1189375907448582e+01 0 0 0
2074 1 2.2133035324871386e+01 1.3686910801903345e+00 1.1192624437470519e+01 0 0 0
2079 1 2.3503219217601536e+01 2.7392665569357204e+00 9.8653338652435494e+00 0 0 0
2080 1 2.4925991811264286e+01 4.1524903926796668e+00 1.1161863890212386e+01 0 0 0
2082 1 2.0763655885072993e-01 6.7354494158615488e+00 1.1207735410254740e+01 0 0 0
2081 1 -1.1017329791534649e+00 5.4759755252244249e+00 9.7178014560985275e+00 0 0 0
2089 1 4.3187810393313315e+00 5.3677022557020413e+00 9.7978698948102050e+00 0 0 0
2090 1 5.7454794317598319e+00 6.8045904051852704e+00 1.1139342677711642e+01 0 0 0
2097 1 9.8997757860568267e+00 5.2786417480763088e+00 9.8170052078347787e+00 0 0 0
2098 1 1.1246186900969857e+01 6.6234067696011865e+00 1.1149131628406197e+01 0 0 0
2105 1 1.5401739660703296e+01 5.4338571947441734e+00 9.7899495494551267e+00 0 0 0
2106 1 1.6808921797888953e+01 6.6870022035204295e+00 1.1248739840232467e+01 0 0 0
2111 1 1.8032082855010245e+01 8.0030381065006395e+00 9.8970267046328306e+00 0 0 0
2113 1 2.0629455193174103e+01 5.4257779961959107e+00 9.7922165730594415e+00 0 0 0
2114 1 2.1991272902730962e+01 6.7760733750835067e+00 1.1296787364330518e+01 0 0 0
2119 1 2.3348068739553359e+01 8.0487468382763971e+00 9.9113108157588101e+00 0 0 0
5 1 1.7154123593899748e+00 -5.4509472860278549e+00 1.6220129724603836e+00 0 0 0
2087 1 1.4857425464936174e+00 8.0801245958793775e+00 9.8738484239632367e+00 0 0 0
2129 1 4.2500051812457196e+00 1.0764130026189710e+01 9.9011208998098521e+00 0 0 0
2088 1 2.8886365423382738e+00 9.4216312812731964e+00 1.1329952840260002e+01 0 0 0
2095 1 7.0371891461334455e+00 8.0322320936332741e+00 9.7242395858605253e+00 0 0 0
2137 1 9.6484924451620220e+00 1.0868970494037793e+01 9.7843954964786786e+00 0 0 0
2096 1 8.5187884094817132e+00 9.3618298810942449e+00 1.1096886308663231e+01 0 0 0
2103 1 1.2538982097641002e+01 8.0472946795759555e+00 9.7662949418405205e+00 0 0 0
2104 1 1.3857913018321794e+01 9.4425292920439166e+00 1.1150154240870542e+01 0 0 0
2145 1 1.5068548613849947e+01 1.0868173554760530e+01 9.9039585771205321e+00 0 0 0
2112 1 1.9352932501795735e+01 9.4704451153064166e+00 1.1159880252367762e+01 0 0 0
2019 1 9.8699666854039947e+00 -2.7422038339030173e+00 1.2490816814151003e+01 0 0 0
2027 1 1.5396530863703548e+01 -2.7332614701342512e+00 1.2453393288043388e+01 0 0 0
2061 1 1.2627876058558380e+01 1.4965610193640750e-02 1.2383174318115872e+01 0 0 0
2093 1 7.2501217210490285e+00 5.4736286985763067e+00 1.2478525864475813e+01 0 0 0
2099 1 9.9749980672643410e+00 8.0752958774638550e+00 1.2426493409152627e+01 0 0 0
2101 1 1.2690394339310771e+01 5.3967676021185742e+00 1.2458559505788649e+01 0 0 0
2133 1 7.0413830292875454e+00 1.0715085466054040e+01 1.2420015279386764e+01 0 0 0
2141 1 1.2484978236611086e+01 1.0856854208614989e+01 1.2482423958521384e+01 0 0 0
153 1 2.0652205143373685e+01 1.0992318736658333e+01 -1.0802674304842803e+00 0 0 0
55 1 7.0493581555680400e+00 2.5722148000876288e+00 -1.0193746932097874e+00 0 0 0
95 1 7.0605247784564824e+00 8.0216051413464822e+00 -9.5174043656586704e-01 0 0 0
119 1 2.3266850813518865e+01 8.0460543374025519e+00 -1.0252630793062494e+00 0 0 0
3007 1 1.5705314411822719e+00 -2.8165167939000915e+00 1.5305671353867348e+01 0 0 0
3001 1 2.6053908213916454e+01 -5.3522021798956709e+00 1.5432751546430277e+01 -1 0 0
2006 1 2.8464465494718945e+00 -4.2051994549689251e+00 1.4008570942992895e+01 0 0 0
3015 1 7.0464824398302710e+00 -2.8250572063659369e+00 1.5330630431348201e+01 0 0 0
2014 1 8.4966185448276903e+00 -3.9554285506820062e+00 1.3956510391818417e+01 0 0 0
4033 1 2.0763051113839914e+01 -5.4991736058036622e+00 2.0751424927300011e+01 0 0 0
4157 1 2.3405772635469624e+01 1.0723854275892997e+01 2.3419351295033703e+01 0 0 0
2022 1 1.3920436758578983e+01 -4.1038089309367667e+00 1.3790531985681222e+01 0 0 0
3023 1 1.2402566008086126e+01 -2.8044001895823172e+00 1.5054612143678815e+01 0 0 0
4029 1 1.8027910863357736e+01 -5.4927913509616531e+00 2.3481287037878545e+01 0 0 0
2030 1 1.9384430132443214e+01 -4.1247179271848573e+00 1.3989285101730323e+01 0 0 0
3031 1 1.7926265414462250e+01 -2.7873574797364680e+00 1.5210201811393860e+01 0 0 0
2035 1 2.0659453562088071e+01 -2.7301383746053278e+00 1.2550950150338554e+01 0 0 0
2037 1 2.3559162710898754e+01 -5.4989764632391767e+00 1.2530713899598362e+01 0 0 0
2038 1 2.4933552488386415e+01 -4.0974557614231131e+00 1.3852619596340594e+01 0 0 0
3039 1 2.3514890779854511e+01 -2.9252963950698199e+00 1.5197653016942763e+01 0 0 0
2045 1 1.5781490417662765e+00 -2.0933699690822605e-01 1.2528542146057564e+01 0 0 0
2004 1 2.8024970850201841e-01 -1.4052054018559437e+00 1.3980708070783040e+01 0 0 0
3041 1 -1.0666930876768923e+00 -1.1396875148031797e-01 1.5445968949404575e+01 0 0 0
2046 1 2.9700484801065694e+00 1.1868356843534762e+00 1.3835528487991185e+01 0 0 0
3049 1 4.4091755905988608e+00 -5.9534324570736832e-02 1.5249870271056700e+01 0 0 0
2012 1 5.6319018467776845e+00 -1.4444044762744144e+00 1.3837854507355743e+01 0 0 0
2053 1 7.0298680851254698e+00 -2.6781073460093844e-02 1.2527076824145492e+01 0 0 0
2054 1 8.4874535058258562e+00 1.4259264335289521e+00 1.3827263428414478e+01 0 0 0
3057 1 9.8617497744607228e+00 -7.0258956202319658e-02 1.5211758408092548e+01 0 0 0
2020 1 1.1206078340615850e+01 -1.3698311551212936e+00 1.3763875231553850e+01 0 0 0
2062 1 1.3861839484749678e+01 1.2791224308526599e+00 1.3902550750447098e+01 0 0 0
3037 1 2.3533290695059446e+01 -5.4862742157235118e+00 1.8031234461517521e+01 0 0 0
2028 1 1.6782369929571338e+01 -1.4093860203314397e+00 1.3816175776222620e+01 0 0 0
3065 1 1.5142923881690336e+01 -1.2123603287851459e-01 1.5217174998249417e+01 0 0 0
2069 1 1.7979974042481292e+01 -1.2805647333379999e-02 1.2505599064391419e+01 0 0 0
2070 1 1.9515783085878606e+01 1.2975158908762028e+00 1.3859977690623877e+01 0 0 0
2036 1 2.2204632246041733e+01 -1.5900744132063080e+00 1.3936995543900373e+01 0 0 0
3073 1 2.0783685029346447e+01 -1.0691561104460851e-01 1.5190572465595706e+01 0 0 0
2077 1 2.3499634494395274e+01 -7.4915697214793617e-02 1.2531281623002187e+01 0 0 0
2044 1 2.7926978946471231e-01 3.9658706440780507e+00 1.3898527941195285e+01 0 0 0
3047 1 1.7419895091986097e+00 2.7104864610040793e+00 1.5149852144059581e+01 0 0 0
2051 1 4.3309811391242734e+00 2.6242351418406713e+00 1.2504748847483603e+01 0 0 0
2052 1 5.6644211673091478e+00 4.1720608569918030e+00 1.3622838701677560e+01 0 0 0
3055 1 6.9397972260795822e+00 2.8173772205023533e+00 1.5048263571609787e+01 0 0 0
2060 1 1.1354819343363694e+01 4.0710284056706785e+00 1.3911445715089831e+01 0 0 0
3063 1 1.2518057712587131e+01 2.7485889527054379e+00 1.5373902461822356e+01 0 0 0
2067 1 1.5198461824769220e+01 2.6254164718662381e+00 1.2609830377383929e+01 0 0 0
2068 1 1.6531903484919628e+01 4.0571054872836614e+00 1.3889025777219150e+01 0 0 0
3071 1 1.7998356794178939e+01 2.6866751343858342e+00 1.5171026634324958e+01 0 0 0
2075 1 2.0838390894802409e+01 2.6405377074870602e+00 1.2643220486723839e+01 0 0 0
2076 1 2.2219130564999329e+01 4.0206429363939984e+00 1.3856410260864545e+01 0 0 0