LAMMPS data file via write_data, version 30 Jul 2016, timestep = 50000

5000 atoms
1 atom types

-1.1037168688014471e+00 2.6103716868801385e+01 xlo xhi
-5.5185843440072304e+00 1.3051858434400725e+02 ylo yhi
-1.1037168688014471e+00 2.6103716868801385e+01 zlo zhi

Masses

1 28.0855

Atoms # atomic

2 1 2.7911179036735184e-01 -4.1864184500871646e+00 2.1172562822647395e-01 0 0 0
3 1 -9.5136171018943716e-01 -2.6309957386818765e+00 1.7313922140315745e+00 0 0 0
1029 1 1.8017337193595257e+01 -5.4879412437309725e+00 7.1235797924047572e+00 0 0 0
11 1 4.2060534479931722e+00 -2.6989251510230834e+00 1.6834753298260559e+00 0 0 0
10 1 5.8152971448479036e+00 -3.9989688498565159e+00 2.7288907806600055e-01 0 0 0
1005 1 1.7084540192405249e+00 -5.4587172121975414e+00 7.1015005911244087e+00 0 0 0
19 1 9.8692830088265229e+00 -2.5923077979994913e+00 1.6625153825934951e+00 0 0 0
1009 1 4.3671083767936487e+00 -5.3715625618200420e+00 4.2188191308526779e+00 0 0 0
18 1 1.1154076017387633e+01 -4.2190694919663532e+00 4.1712303339059953e-01 0 0 0
23 1 1.2564029259403005e+01 -2.9457542760552187e+00 -9.9696160437104464e-01 0 0 0
27 1 1.5100943654964398e+01 -2.8038184261689358e+00 1.6742601414397789e+00 0 0 0
26 1 1.6651465753604331e+01 -4.0010483687397560e+00 3.1885225327703576e-01 0 0 0
1001 1 -8.9065030263830403e-01 -5.3937884244058409e+00 4.5202418869717542e+00 0 0 0
34 1 2.2148733824204655e+01 -3.9525474855888976e+00 3.3680419812931883e-01 0 0 0
35 1 2.0795062506858365e+01 -2.5860902264129795e+00 1.6887645071087145e+00 0 0 0
39 1 2.3472291020051145e+01 -2.7420338754282989e+00 -1.0840252107038026e+00 0 0 0
41 1 2.6097317804488419e+01 -2.4919414750531985e-02 -1.0218305578777132e+00 -1 0 0
45 1 1.5618551932486944e+00 2.3433513518793921e-02 1.5656592232823694e+00 0 0 0
37 1 2.3602954464720099e+01 -5.3636339812388201e+00 1.6685817646308010e+00 0 0 0
8 1 2.9387610372667510e+00 -1.4086883232324470e+00 3.0506486127765764e-01 0 0 0
53 1 6.9965253733495700e+00 -1.0545779312642964e-02 1.7172684816984374e+00 0 0 0
50 1 5.7070212194519883e+00 1.3407167331548913e+00 2.1618617669738699e-01 0 0 0
16 1 8.3973828875979191e+00 -1.3891189517124944e+00 3.1065854150693012e-01 0 0 0
57 1 9.8917354287528951e+00 -1.5227486258828399e-01 -1.0197647657269635e+00 0 0 0
58 1 1.1223152190604214e+01 1.2817529090306812e+00 1.6186638424233502e-01 0 0 0
24 1 1.3936042120889416e+01 -1.3946345632695578e+00 2.1820926680496242e-01 0 0 0
61 1 1.2550745346361980e+01 -1.4083924843401405e-01 1.6647902266140300e+00 0 0 0
66 1 1.6620596787824990e+01 1.3568718470044816e+00 1.9017203934995999e-01 0 0 0
2029 1 1.7994359476243538e+01 -5.5117162561242878e+00 1.2439691276966535e+01 0 0 0
69 1 1.7891278421295901e+01 -1.2946058937299113e-01 1.4518470874018041e+00 0 0 0
32 1 1.9381889561628483e+01 -1.3608669064496823e+00 1.9675879861387954e-01 0 0 0
73 1 2.0647172656262608e+01 5.8204114566215527e-02 -1.0889980845374332e+00 0 0 0
77 1 2.3461144869549774e+01 1.0935529153452619e-01 1.7071179781724484e+00 0 0 0
40 1 2.4698799831849545e+01 -1.4085575220314326e+00 4.4317235010480671e-01 0 0 0
42 1 1.5102273984562986e-01 1.3552651631235708e+00 2.7524362799576002e-01 0 0 0
29 1 1.7993054203867018e+01 -5.3867922686787892e+00 1.6496160769769319e+00 0 0 0
51 1 4.3732390118089164e+00 2.7119277196477927e+00 1.5086435932549609e+00 0 0 0
48 1 2.9835444215152602e+00 3.9893460880717009e+00 1.1006191980632035e-01 0 0 0
56 1 8.6610531944778586e+00 3.8407222542658297e+00 3.8369397231760238e-01 0 0 0
59 1 9.9237395734922611e+00 2.4951607955373207e+00 1.7794041384568107e+00 0 0 0
64 1 1.3816932836907291e+01 4.0421791340630415e+00 2.6434140027721387e-01 0 0 0
67 1 1.5220386388932489e+01 2.5885311233089188e+00 1.5860177237116979e+00 0 0 0
72 1 1.9431451902161584e+01 3.9964194726764588e+00 4.6482503245556783e-01 0 0 0
71 1 1.8060045554646550e+01 2.8001971957557901e+00 -1.0411027389228713e+00 0 0 0
74 1 2.1998402216021478e+01 1.2937097893667298e+00 3.7584571522061477e-01 0 0 0
75 1 2.0622190443535281e+01 2.6418898808064775e+00 1.7715263648585804e+00 0 0 0
25 1 1.5254532668125973e+01 -5.4164484091064935e+00 -9.7416565378998987e-01 0 0 0
80 1 2.4676847563502612e+01 4.0259841619747183e+00 8.5371726131427322e-02 0 0 0
43 1 2.5933377544674428e+01 2.6308036549285347e+00 1.5981854623361147e+00 -1 0 0
82 1 3.4603659164113798e-01 6.8357579682715581e+00 3.7159990354165179e-01 0 0 0
85 1 1.5893644542862049e+00 5.3812813561252923e+00 1.5716277623022643e+00 0 0 0
13 1 7.2733639916128361e+00 -5.4689991661548447e+00 1.6019576569301717e+00 0 0 0
9 1 4.5036314948570579e+00 -5.4609916541319024e+00 -1.0219531126759078e+00 0 0 0
91 1 4.3196567514327890e+00 8.0760790997810581e+00 1.6799771359203410e+00 0 0 0
90 1 5.6607872738253127e+00 6.6717374734638710e+00 3.3244957680607473e-01 0 0 0
93 1 6.9553644167344935e+00 5.2447392425964976e+00 1.6208902720827927e+00 0 0 0
98 1 1.1112863528097966e+01 6.7811647359116316e+00 4.0603164334822034e-01 0 0 0
101 1 1.2597986201102783e+01 5.3681954641407303e+00 1.6588505549364105e+00 0 0 0
106 1 1.6610438822522219e+01 6.7830657155258178e+00 3.1917587421525545e-01 0 0 0
2001 1 -1.0029990720633002e+00 -5.5008490766948057e+00 9.7650376441062772e+00 0 0 0
109 1 1.8009935434433629e+01 5.4414122205945068e+00 1.6360178962676073e+00 0 0 0
114 1 2.2037246628406773e+01 6.6328397573302675e+00 2.8717061099506325e-01 0 0 0
115 1 2.0633561587048497e+01 8.1256332795004358e+00 1.5094096627032081e+00 0 0 0
113 1 2.0737877317153512e+01 5.3428704200697599e+00 -9.9493010469668919e-01 0 0 0
117 1 2.3362425369124697e+01 5.2944624596973773e+00 1.6276426097750034e+00 0 0 0
81 1 2.6086175636379867e+01 5.5979775368439304e+00 -1.0721001241282082e+00 -1 0 0
125 1 1.6070986016016571e+00 1.0776078150718917e+01 1.5973962801470556e+00 0 0 0
88 1 2.9674776959293947e+00 9.4874512305767400e+00 2.5276997539965790e-01 0 0 0
5 1 1.6111856939402716e+00 -5.4365140788898998e+00 1.6325909763407749e+00 0 0 0
133 1 6.9445128028935876e+00 1.0680307102038414e+01 1.7340085993365748e+00 0 0 0
99 1 9.6761137205193926e+00 8.1323464133824626e+00 1.7620785482733397e+00 0 0 0
96 1 8.4015878158821735e+00 9.4832737077069424e+00 2.6564388233382347e-01 0 0 0
2121 1 2.6085992737846745e+01 1.0692653038603398e+01 9.7916828598488159e+00 -1 0 0
103 1 1.2393905147750779e+01 7.9932021623107978e+00 -1.0887567436563508e+00 0 0 0
104 1 1.3811385017069298e+01 9.4465458530766444e+00 1.7097070757614619e-01 0 0 0
141 1 1.2539952902368013e+01 1.0816198645923375e+01 1.6101669194309216e+00 0 0 0
107 1 1.5076686043969687e+01 8.1511952529299325e+00 1.5692991428606351e+00 0 0 0
2120 1 2.4769598586683358e+01 9.4552447229848333e+00 1.1139472378151375e+01 0 0 0
149 1 1.7786088996982702e+01 1.0834743667092155e+01 1.5930846315907212e+00 0 0 0
112 1 1.9211066331709880e+01 9.5907940735878920e+00 1.6618197955182537e-01 0 0 0
157 1 2.3291650041840853e+01 1.0923991219620142e+01 1.4930490575129147e+00 0 0 0
120 1 2.4724717312234862e+01 9.4299884146348063e+00 2.4032629954298532e-01 0 0 0
83 1 2.5949167489071254e+01 8.1743388321765433e+00 1.6859683322694874e+00 -1 0 0
2153 1 2.0752976691129604e+01 1.0964715189933743e+01 9.7407161312033530e+00 0 0 0
1007 1 1.5645280225706708e+00 -2.6350813077154114e+00 4.2548177769412812e+00 0 0 0
6 1 2.8528756473364054e+00 -4.0661954110263316e+00 2.9599398796580174e+00 0 0 0
1015 1 6.9540132268790478e+00 -2.7933845333620746e+00 4.2537926820707703e+00 0 0 0
1010 1 5.6337184987125628e+00 -4.0683938595220948e+00 5.7899373229753035e+00 0 0 0
14 1 8.5225411380918263e+00 -4.0213180099479162e+00 2.9927370910538298e+00 0 0 0
1017 1 9.7178160612612441e+00 -5.4804951469186971e+00 4.4767273286194227e+00 0 0 0
1018 1 1.1200950644168774e+01 -4.0359961444827182e+00 5.6051475608491721e+00 0 0 0
22 1 1.3852125095799353e+01 -4.2023864490574550e+00 3.0240403452578843e+00 0 0 0
1023 1 1.2651611877815512e+01 -2.8050716656786316e+00 4.3978257067638706e+00 0 0 0
1031 1 1.7884661806547186e+01 -2.8706139154969121e+00 4.2702394876586780e+00 0 0 0
30 1 1.9409871589971548e+01 -4.0376694497520020e+00 2.9669535039968071e+00 0 0 0
1033 1 2.0729789004945150e+01 -5.3771436668271644e+00 4.3881030691514091e+00 0 0 0
38 1 2.4938432048860562e+01 -3.9224396706818827e+00 3.0985609020167457e+00 0 0 0
1039 1 2.3449567414137281e+01 -2.5573929477589901e+00 4.3546357641996174e+00 0 0 0
4 1 2.0728506310104700e-01 -1.1974960463816469e+00 3.0433332203898691e+00 0 0 0
1042 1 2.2425681296276090e-01 1.5562662870914570e+00 5.8958209025490858e+00 0 0 0
1049 1 4.3273783458433863e+00 1.0534620593785796e-01 4.4290372307886985e+00 0 0 0
1008 1 2.9117381476344950e+00 -1.3998438905922443e+00 5.7746070047238831e+00 0 0 0
12 1 5.5508620759205352e+00 -1.3766129718249611e+00 2.9739569013126275e+00 0 0 0
54 1 8.4736928146324715e+00 1.2723986786041208e+00 3.0502766639553096e+00 0 0 0
1057 1 9.8286793279190601e+00 -9.8853975122081841e-02 4.3706991202045877e+00 0 0 0
1016 1 8.3161227890667409e+00 -1.3372081055144895e+00 5.6846545767109884e+00 0 0 0
20 1 1.1238744355464501e+01 -1.4798167384244707e+00 3.1356536898977794e+00 0 0 0
1058 1 1.1123237335088465e+01 1.4289661198938022e+00 5.7455692566486798e+00 0 0 0
1024 1 1.3878157556361261e+01 -1.3405263041751960e+00 5.7360382328224961e+00 0 0 0
1065 1 1.5266356478448797e+01 1.9991797529643114e-03 4.3576904165353341e+00 0 0 0
28 1 1.6465626588639701e+01 -1.3750284126514907e+00 2.9058802465091063e+00 0 0 0
1073 1 2.0566896115543869e+01 7.6658835384314963e-02 4.4054572857432328e+00 0 0 0
36 1 2.2023846554731165e+01 -1.2036019811078011e+00 3.0938086878852111e+00 0 0 0
1041 1 -1.0118924997649970e+00 1.0341971692517679e-01 4.4047500254765657e+00 0 0 0
78 1 2.4725461470543447e+01 1.3683353739049855e+00 3.1823332651771192e+00 0 0 0
44 1 2.1612063863002368e-01 4.0425771280246403e+00 3.0560327538280920e+00 0 0 0
1047 1 1.5464233847266058e+00 2.7768624939768594e+00 4.3543432825930664e+00 0 0 0
46 1 3.1262251590555379e+00 1.3195482031655095e+00 2.9470333705232696e+00 0 0 0
1048 1 3.1166713816729366e+00 4.0538303850652282e+00 5.6406525280416684e+00 0 0 0
52 1 5.7720779281524965e+00 3.8226928396033197e+00 2.9980002187084249e+00 0 0 0
1055 1 7.1593268251086259e+00 2.6343634886284080e+00 4.4185641353782543e+00 0 0 0
1056 1 8.4759214273222874e+00 4.0392970402935005e+00 5.7375786235072574e+00 0 0 0
60 1 1.1192979566746050e+01 4.0447861642066494e+00 3.0511100499758994e+00 0 0 0
62 1 1.3884492683067240e+01 1.2829803839679013e+00 2.9305748365429420e+00 0 0 0
1063 1 1.2541177305494390e+01 2.6657777045604516e+00 4.2623427470823376e+00 0 0 0
68 1 1.6646839280620426e+01 4.0357892593037397e+00 2.9046116917447291e+00 0 0 0
1071 1 1.7837215284856619e+01 2.7746360273284938e+00 4.3707292254407637e+00 0 0 0
70 1 1.9110431372591577e+01 1.2279617806223482e+00 3.0181534948903042e+00 0 0 0
76 1 2.2034869030526409e+01 4.0947013657025728e+00 3.0122851820040379e+00 0 0 0
1079 1 2.3489076792978413e+01 2.7771357104908301e+00 4.4455333567905635e+00 0 0 0
1087 1 1.5188314031944543e+00 8.0584868539178345e+00 4.2778195628574451e+00 0 0 0
1089 1 4.4522675667316971e+00 5.3993487812718604e+00 4.2540219271221318e+00 0 0 0
86 1 3.0167193049978493e+00 6.6644868653520604e+00 2.9809854496827173e+00 0 0 0
94 1 8.2598099583437694e+00 6.7430377015521046e+00 2.9574707611180049e+00 0 0 0
1097 1 9.8587113087467948e+00 5.4738420167594901e+00 4.3040595763266980e+00 0 0 0
1103 1 1.2589526522959487e+01 8.0926075445405381e+00 4.2537791080498328e+00 0 0 0
102 1 1.3972280092498004e+01 6.6766216835676193e+00 2.9210057603244128e+00 0 0 0
1105 1 1.5311403119377244e+01 5.3670877212506518e+00 4.1807852797343292e+00 0 0 0
110 1 1.9333941251999402e+01 6.7826016716521842e+00 2.9670987525017947e+00 0 0 0
1113 1 2.0646029464438403e+01 5.3642799013730480e+00 4.4588186732578725e+00 0 0 0
118 1 2.4595034766257665e+01 6.7192658797660192e+00 2.9410693623472497e+00 0 0 0
1119 1 2.3238464348013064e+01 8.0882903546890681e+00 4.3451780061665763e+00 0 0 0
1081 1 2.6079072784079688e+01 5.3167364686018681e+00 4.3803246363058399e+00 -1 0 0
84 1 2.3083117505019438e-01 9.5471108549953012e+00 3.0581150640789150e+00 0 0 0
1129 1 4.3059346419738525e+00 1.0760389085232937e+01 4.4958571375395193e+00 0 0 0
1095 1 6.9546100065739722e+00 8.0814900360646096e+00 4.3545581107990703e+00 0 0 0
92 1 5.5408067589900734e+00 9.4568831979240091e+00 3.0243753070100041e+00 0 0 0
1137 1 9.6140337939724336e+00 1.0772617454132304e+01 4.4566833747183390e+00 0 0 0
100 1 1.1246171582835563e+01 9.4552751302670899e+00 3.0443374454557466e+00 0 0 0
1145 1 1.5111058467370453e+01 1.0605204716733354e+01 4.4350884231834904e+00 0 0 0
108 1 1.6569649023297057e+01 9.3072288339945359e+00 2.9268153411990103e+00 0 0 0
1111 1 1.7968660549687822e+01 8.0485149544126404e+00 4.4654993769801257e+00 0 0 0
1153 1 2.0615695858070094e+01 1.0877605852095497e+01 4.3274782060262060e+00 0 0 0
116 1 2.1912425549987777e+01 9.4623151147752189e+00 2.8094489956784718e+00 0 0 0
1120 1 2.4586582744292137e+01 9.3426878713296500e+00 5.7143934951225761e+00 0 0 0
1121 1 2.6018710372719628e+01 1.0732269771486507e+01 4.4644898348638851e+00 -1 0 0
1002 1 4.1639120998729606e-01 -4.0210363436058998e+00 5.8039990973860478e+00 0 0 0
1011 1 4.3898873229746078e+00 -2.7177489347674477e+00 7.1984591583184043e+00 0 0 0
1006 1 2.9680922493899100e+00 -4.1274365056010938e+00 8.4732330273426832e+00 0 0 0
1013 1 7.1440305015304197e+00 -5.4625659780921891e+00 7.0419323955820845e+00 0 0 0
1019 1 9.7697688869654264e+00 -2.7541344589873762e+00 6.9945543536830108e+00 0 0 0
1014 1 8.4299347284715118e+00 -4.0744296356607981e+00 8.3938729185527841e+00 0 0 0
1021 1 1.2497596716411229e+01 -5.4146067495309831e+00 7.0132181835948098e+00 0 0 0
1022 1 1.4004465235231425e+01 -4.1333051542175694e+00 8.3533919999102260e+00 0 0 0
1027 1 1.5178287587020902e+01 -2.7971264133446962e+00 7.1402673173329934e+00 0 0 0
1026 1 1.6475511682325479e+01 -4.1958698804743868e+00 5.7685915970117705e+00 0 0 0
1030 1 1.9455353495155588e+01 -4.0816616014821330e+00 8.3703773083870274e+00 0 0 0
1034 1 2.2163015521178050e+01 -4.0610159263371166e+00 5.8409331219780780e+00 0 0 0
1035 1 2.0731963464815500e+01 -2.6431268987555008e+00 6.8743523753649534e+00 0 0 0
1038 1 2.4859371871827449e+01 -4.0767427381349721e+00 8.4602470209381782e+00 0 0 0
1003 1 -9.9779694628439586e-01 -2.6734103149947606e+00 7.1091439838577406e+00 0 0 0
1045 1 1.6553747472743596e+00 4.9698997626763927e-02 7.1156946317260230e+00 0 0 0
1004 1 4.1575817805475995e-01 -1.3467523541319311e+00 8.4391763652397920e+00 0 0 0
1053 1 7.0320929516779458e+00 -6.3169644234247202e-03 7.0855223356511647e+00 0 0 0
1012 1 5.7765582484613835e+00 -1.3768991105765545e+00 8.6121309227141740e+00 0 0 0
1020 1 1.1128654536086151e+01 -1.5934200263911260e+00 8.5004788711474220e+00 0 0 0
1061 1 1.2358203794647304e+01 -5.2826260245032272e-02 7.1846585204809408e+00 0 0 0
1028 1 1.6627240386042864e+01 -1.2895715324673094e+00 8.3689375731176554e+00 0 0 0
1069 1 1.7925758370693160e+01 -1.3000931002890490e-02 6.9875791146181863e+00 0 0 0
1032 1 1.9200269353611368e+01 -1.3133927689639815e+00 5.7071242505348074e+00 0 0 0
1074 1 2.1923484737717168e+01 1.4343028898741772e+00 5.7064051144982200e+00 0 0 0
1036 1 2.2034856474235657e+01 -1.2897823807275159e+00 8.4154811097222044e+00 0 0 0
1077 1 2.3349516816219822e+01 8.8705141397041914e-02 7.0681807132680410e+00 0 0 0
1040 1 2.4829178582422234e+01 -1.2432891713623369e+00 5.7408629659732675e+00 0 0 0
1044 1 4.0208593664507902e-01 4.1577215938118082e+00 8.4773171570123136e+00 0 0 0
1051 1 4.4272010682720015e+00 2.6716208030549744e+00 7.1684710432663161e+00 0 0 0
1046 1 3.0332896862527217e+00 1.3440609097478580e+00 8.4315777604121074e+00 0 0 0
1050 1 5.7515549227466725e+00 1.3122366603815296e+00 5.7367269964557419e+00 0 0 0
1052 1 5.6492827144547908e+00 4.1914974999232504e+00 8.4320218901155961e+00 0 0 0
1059 1 9.8394666415465668e+00 2.7253915900128858e+00 7.0220729289595001e+00 0 0 0
1054 1 8.4078572261208162e+00 1.3521684469967428e+00 8.4268373656870370e+00 0 0 0
1060 1 1.1199212764275677e+01 3.8789971124846767e+00 8.4639260921698281e+00 0 0 0
1064 1 1.4009892842478841e+01 4.1337825412696247e+00 5.5875203381635181e+00 0 0 0
1062 1 1.3815607485833667e+01 1.2091698737497050e+00 8.2870679169463646e+00 0 0 0
1066 1 1.6580182068793324e+01 1.3800144673540775e+00 5.7270916679805239e+00 0 0 0
1067 1 1.5114665749924376e+01 2.6687604935910838e+00 7.1064333690548214e+00 0 0 0
1068 1 1.6608792532042614e+01 4.0045822836717067e+00 8.4032623778013793e+00 0 0 0
1072 1 1.9156835654083810e+01 4.1077303783125423e+00 5.7727871609582202e+00 0 0 0
1070 1 1.9243885392915633e+01 1.3562851427522360e+00 8.5169502630453611e+00 0 0 0
1075 1 2.0497005821081537e+01 2.7123398503816083e+00 7.1472993846228849e+00 0 0 0
1076 1 2.2011961547088497e+01 4.0815298799524093e+00 8.5544628473291606e+00 0 0 0
1080 1 2.4695162239132568e+01 4.0613010617735581e+00 5.8558884984089099e+00 0 0 0
1078 1 2.4734500416765215e+01 1.3976629113414347e+00 8.4922884895937685e+00 0 0 0
1043 1 -1.0019858228606502e+00 2.8338138863924911e+00 7.2516551547600709e+00 0 0 0
1082 1 2.7959782873317907e-01 6.6891859583920441e+00 5.6482546331793442e+00 0 0 0
1085 1 1.8121777110196395e+00 5.4178927574325293e+00 7.0560616502678295e+00 0 0 0
1091 1 4.2723541666500866e+00 8.0583495500468771e+00 7.0730309144696237e+00 0 0 0
1086 1 2.9886892029618783e+00 6.8679650541497193e+00 8.5694753468613030e+00 0 0 0
1090 1 5.7153066603175668e+00 6.7421525388357235e+00 5.7544412678756141e+00 0 0 0
1093 1 6.9801551139661191e+00 5.4732106275788821e+00 7.0434264059600942e+00 0 0 0
1099 1 9.7963849780376808e+00 8.0392713707656132e+00 7.0375386484264837e+00 0 0 0
1094 1 8.4882075177726293e+00 6.5871513187374040e+00 8.4237115075003466e+00 0 0 0
1098 1 1.1141618590538226e+01 6.7454757780429784e+00 5.6344682757996347e+00 0 0 0
1101 1 1.2425935961457858e+01 5.2631270434509343e+00 7.0039414991306570e+00 0 0 0
1102 1 1.3893154720890674e+01 6.4806834944836904e+00 8.3722018966949818e+00 0 0 0
1106 1 1.6467530654572418e+01 6.7457522532036300e+00 5.6614574953887145e+00 0 0 0
1109 1 1.7977827809772499e+01 5.5303785211080285e+00 7.2220090089028224e+00 0 0 0
1110 1 1.9407952530661998e+01 6.8329150433541370e+00 8.5581412307916498e+00 0 0 0
1114 1 2.1943880206960614e+01 6.7326933638637279e+00 5.8347476759767760e+00 0 0 0
1117 1 2.3359858880994736e+01 5.4441751181539049e+00 7.2500130944276870e+00 0 0 0
1118 1 2.4676677345718776e+01 6.7718576549524956e+00 8.3944962859210595e+00 0 0 0
1083 1 -1.0573558322124228e+00 8.1229146110885768e+00 6.9580720887607761e+00 0 0 0
1125 1 1.6543172907670796e+00 1.0934082066014765e+01 7.0323828954096950e+00 0 0 0
1084 1 2.5000231077482377e-01 9.4921752788126454e+00 8.3881402445092181e+00 0 0 0
1088 1 2.8679279942146527e+00 9.3486879926574424e+00 5.6692498653716035e+00 0 0 0
1133 1 6.9824090346378274e+00 1.0850091474287932e+01 7.0281702404977962e+00 0 0 0
1092 1 5.6093277575728413e+00 9.4347770229785368e+00 8.4839972994792756e+00 0 0 0
1096 1 8.2943766039838298e+00 9.2848288461708819e+00 5.7453250662837965e+00 0 0 0
1141 1 1.2355026909452064e+01 1.0750072472398015e+01 7.2188895945254705e+00 0 0 0
1100 1 1.1077696541033559e+01 9.3582897656926214e+00 8.4136422193042932e+00 0 0 0
1104 1 1.3714038706710493e+01 9.2660871559143345e+00 5.8993133485770084e+00 0 0 0
1107 1 1.5200375125337626e+01 7.9485224554260743e+00 7.0528100296948510e+00 0 0 0
1108 1 1.6481630215682454e+01 9.2655432348645679e+00 8.5244062738742130e+00 0 0 0
1149 1 1.7803380807639826e+01 1.0757831982830934e+01 7.1936672092350538e+00 0 0 0
1112 1 1.9243323242415055e+01 9.4609204958634834e+00 5.8005140740336607e+00 0 0 0
1115 1 2.0664475221410658e+01 8.1962516696486194e+00 7.1366931465171524e+00 0 0 0
1116 1 2.1990112413361004e+01 9.5342489768746326e+00 8.5221703439000311e+00 0 0 0
1157 1 2.3207162553858918e+01 1.0741370274625021e+01 7.0691344179459081e+00 0 0 0
2007 1 1.6447615152325690e+00 -2.8297086737305652e+00 9.7803303585936003e+00 0 0 0
2002 1 3.0794901540598080e-01 -4.1430225745143625e+00 1.1149764651438508e+01 0 0 0
2112 1 1.9406346084427682e+01 9.5170779630029134e+00 1.1038974998502262e+01 0 0 0
2003 1 -1.0458032375133766e+00 -2.7212940005289203e+00 1.2449427197270774e+01 0 0 0
2011 1 4.2511672553625512e+00 -2.7661219488603646e+00 1.2456107921614842e+01 0 0 0
2015 1 7.1120627206022329e+00 -2.8443481670937190e+00 9.8683607237291486e+00 0 0 0
2010 1 5.6742613381206910e+00 -4.1819846557342872e+00 1.1196957946388531e+01 0 0 0
2017 1 9.8261786954010297e+00 -5.4968769177797405e+00 9.5698568498974144e+00 0 0 0
2023 1 1.2648977565321752e+01 -2.7968249172355137e+00 9.8139331821585571e+00 0 0 0
2018 1 1.1155752998195510e+01 -4.2099863120464915e+00 1.1173074938711705e+01 0 0 0
2025 1 1.5294655080501876e+01 -5.4793709852200321e+00 9.6566594376839507e+00 0 0 0
2026 1 1.6604096577987427e+01 -4.1774526541135870e+00 1.1137932570773225e+01 0 0 0
2031 1 1.7973729346590801e+01 -2.7360879036423715e+00 9.7320567500580228e+00 0 0 0
2034 1 2.2148460836430687e+01 -4.2434430278388096e+00 1.1157904782362698e+01 0 0 0
2039 1 2.3340092328740958e+01 -2.7242505327284361e+00 9.7393283354468068e+00 0 0 0
2042 1 2.8623898661424441e-01 1.3925946066460126e+00 1.1200345191491904e+01 0 0 0
2041 1 -1.0115534021217052e+00 4.5618219368780161e-02 9.7655900358054897e+00 0 0 0
2049 1 4.4121367716428237e+00 2.6808556650491828e-02 9.9844633992471543e+00 0 0 0
2008 1 2.9796430652666364e+00 -1.5218930988645245e+00 1.1095391985622429e+01 0 0 0
2057 1 9.8447387265979920e+00 -4.5795291651487241e-02 9.6227781338306730e+00 0 0 0
2016 1 8.3493806531450439e+00 -1.2915258974355637e+00 1.1121480871168668e+01 0 0 0
2024 1 1.3978784192248964e+01 -1.3841514283934735e+00 1.1202113548415101e+01 0 0 0
2065 1 1.5230849350180323e+01 2.3847104321908352e-03 9.7515358719886525e+00 0 0 0
2066 1 1.6464400310071813e+01 1.3896095835646542e+00 1.1061097566728201e+01 0 0 0
2032 1 1.9464636133009854e+01 -1.4691235849012054e+00 1.1139699917453063e+01 0 0 0
2073 1 2.0705403870763803e+01 -2.4153997823220870e-02 9.8074923813187436e+00 0 0 0
2040 1 2.4794940284463085e+01 -1.3725294594977133e+00 1.1052430642306927e+01 0 0 0
2047 1 1.6779329113151407e+00 2.7280054261576527e+00 9.8390008228685346e+00 0 0 0
2145 1 1.5171585610358754e+01 1.0871072346779902e+01 9.7494347841135500e+00 0 0 0
2048 1 3.0482805284698404e+00 4.0454880126550163e+00 1.1228560601786860e+01 0 0 0
2055 1 6.9669509589272769e+00 2.6601547902294027e+00 9.6940688850812400e+00 0 0 0
2050 1 5.7404897572813232e+00 1.4204789321261571e+00 1.1188797402798500e+01 0 0 0
2056 1 8.3749167757140466e+00 4.0096971324473509e+00 1.1195850884042219e+01 0 0 0
2104 1 1.3836855817973150e+01 9.5821263053857066e+00 1.1156865857768004e+01 0 0 0
2058 1 1.1191849868268838e+01 1.2347635277487412e+00 1.1102221447740632e+01 0 0 0
2064 1 1.4034047846770560e+01 3.9789859092237889e+00 1.1213255514225668e+01 0 0 0
2063 1 1.2660206262055318e+01 2.5602536098436022e+00 9.8430866843518601e+00 0 0 0
2071 1 1.7932120185199850e+01 2.6851494988026161e+00 9.8487079549127206e+00 0 0 0
2072 1 1.9277756303529667e+01 4.0516657714457507e+00 1.1204279149946753e+01 0 0 0
2074 1 2.2125813748488785e+01 1.4179468047819561e+00 1.1120847014317048e+01 0 0 0
2079 1 2.3513955778377216e+01 2.8930832479786792e+00 9.8380253824462560e+00 0 0 0
2080 1 2.4847462947074490e+01 4.1393517846966041e+00 1.1236620061663650e+01 0 0 0
2082 1 3.9057477124273265e-01 6.8745295748452291e+00 1.1160873859478759e+01 0 0 0
2081 1 -1.0370070047575559e+00 5.5366036790781221e+00 9.8130662244157794e+00 0 0 0
2089 1 4.2808426766985246e+00 5.4572926132444994e+00 9.9736805684548600e+00 0 0 0
2090 1 5.6852179135800922e+00 6.8258657540727654e+00 1.1081974037295845e+01 0 0 0
2097 1 9.8193358403420774e+00 5.2584997433119511e+00 9.7671285626475601e+00 0 0 0
2098 1 1.1244167636472419e+01 6.6711405266039892e+00 1.1095438443535921e+01 0 0 0
2105 1 1.5303644017853555e+01 5.2736274449500264e+00 9.7997788583037178e+00 0 0 0
2106 1 1.6452548842057105e+01 6.7651139285776107e+00 1.1180140060685817e+01 0 0 0
2111 1 1.7891736302930315e+01 8.1448198029918331e+00 9.8419772373629151e+00 0 0 0
2113 1 2.0809767702679743e+01 5.3938647758160245e+00 9.9049730740270618e+00 0 0 0
2114 1 2.2089684681134301e+01 6.8264025895043998e+00 1.1230404219603779e+01 0 0 0
2119 1 2.3455092384915279e+01 8.2037122938279499e+00 9.7258962595649869e+00 0 0 0
2103 1 1.2667497601320591e+01 8.0052604149227129e+00 9.7236817512914619e+00 0 0 0
2087 1 1.6140218504331696e+00 8.2050672653089851e+00 9.8927044200038843e+00 0 0 0
2129 1 4.1521433510625574e+00 1.0726645140662047e+01 9.7505729186800618e+00 0 0 0
2088 1 2.9170078614583987e+00 9.4545072739537623e+00 1.1265925023234370e+01 0 0 0
2095 1 7.1429253707713345e+00 7.9928667758895662e+00 9.6670651388057145e+00 0 0 0
2137 1 9.7992725610926037e+00 1.0884179484409488e+01 9.7030171395973071e+00 0 0 0
2096 1 8.5220701003134369e+00 9.4006583549905294e+00 1.1081015040500699e+01 0 0 0
2019 1 9.7768489943817176e+00 -2.6267664653434331e+00 1.2412795346897942e+01 0 0 0
2027 1 1.5281882547298682e+01 -2.7303016793986856e+00 1.2445051434482270e+01 0 0 0
2035 1 2.0824759578120137e+01 -2.8910170123973211e+00 1.2466536326375262e+01 0 0 0
2045 1 1.5663132370928383e+00 -1.4989630032971243e-01 1.2438296306798520e+01 0 0 0
2069 1 1.7967706090665455e+01 -5.8779691257153811e-04 1.2384159340177145e+01 0 0 0
2077 1 2.3366907571002042e+01 -2.6282512458642167e-02 1.2460741342551549e+01 0 0 0
2085 1 1.6140838987470727e+00 5.5118216420322304e+00 1.2469642320299357e+01 0 0 0
2093 1 7.1012601203857022e+00 5.5702143647624842e+00 1.2464476669731432e+01 0 0 0
2099 1 9.8940290429514821e+00 8.0433126854112356e+00 1.2480443852759073e+01 0 0 0
2101 1 1.2564862740931458e+01 5.3294800163165910e+00 1.2492937120920319e+01 0 0 0
2109 1 1.7758023889794767e+01 5.3357561042514989e+00 1.2492408713437234e+01 0 0 0
2133 1 7.1199557636172583e+00 1.0741718093881513e+01 1.2408531442364184e+01 0 0 0
2107 1 1.5230799376038538e+01 8.1180494701196473e+00 1.2499020877625659e+01 0 0 0
2149 1 1.7900667983242876e+01 1.0855503565076903e+01 1.2498530439632232e+01 0 0 0
2115 1 2.0624281892923548e+01 8.1642866080438541e+00 1.2486597811760779e+01 0 0 0
2083 1 -1.0948118243823330e+00 8.0281074535381478e+00 1.2489046444061843e+01 0 0 0
2157 1 2.3281295867194558e+01 1.0766970046214267e+01 1.2446537991426190e+01 0 0 0
63 1 1.2488506533096524e+01 2.6715946008825613e+00 -1.0701232342174478e+00 0 0 0
95 1 7.0199950287527786e+00 7.9744568292482985e+00 -1.0747271862535897e+00 0 0 0
97 1 9.9155960557075389e+00 5.3341294483396124e+00 -9.9992590904348688e-01 0 0 0
3007 1 1.6123625956863521e+00 -2.7120425077153034e+00 1.5267591928223197e+01 0 0 0
3001 1 -9.8686518313379867e-01 -5.3049911033282484e+00 1.5160135861802793e+01 0 0 0
2006 1 2.8807652416095135e+00 -4.1321428893811980e+00 1.3822214503920435e+01 0 0 0
3015 1 7.0346580778115442e+00 -2.7115210755213415e+00 1.5099500600629613e+01 0 0 0
2014 1 8.6030622113719311e+00 -3.9738828749742798e+00 1.3901184985889524e+01 0 0 0
4029 1 1.7847161872244147e+01 -5.3975039951337465e+00 2.3274932102227904e+01 0 0 0
4157 1 2.3463023223646317e+01 1.0721727796208929e+01 2.3237854361953552e+01 0 0 0
2022 1 1.3787754013180072e+01 -4.0884881475614696e+00 1.3769411939955013e+01 0 0 0
3023 1 1.2472917569728446e+01 -2.8398242831592460e+00 1.5202911615793903e+01 0 0 0
3037 1 2.3467610203690306e+01 -5.4206287601091674e+00 1.8002360737821355e+01 0 0 0
2030 1 1.9340172785820577e+01 -4.1765009556420276e+00 1.3944127788838701e+01 0 0 0
3031 1 1.7842399148143013e+01 -2.6873407096148334e+00 1.5272058934916130e+01 0 0 0
3029 1 1.7901806548490942e+01 -5.4210309453948469e+00 1.8012489770260967e+01 0 0 0
153 1 2.0683687801193930e+01 1.0888857798518085e+01 2.6062870211466208e+01 0 0 -1
2038 1 2.4771643251404218e+01 -4.0174207947750951e+00 1.3819120260345031e+01 0 0 0
3039 1 2.3381838564827213e+01 -2.7127519816566781e+00 1.5237229153484552e+01 0 0 0
3005 1 1.4999912436198877e+00 -5.4653217838259991e+00 1.7957702821014710e+01 0 0 0
2004 1 2.5965088218019977e-01 -1.3136972821160804e+00 1.3901413707932472e+01 0 0 0
3041 1 2.6056357263240045e+01 -4.7668578542862890e-02 1.5329812177237207e+01 -1 0 0
2046 1 3.0099826065503832e+00 1.3430303125929504e+00 1.3866639465361809e+01 0 0 0
3049 1 4.2828594213629385e+00 -1.2208573317380525e-01 1.5238298213755987e+01 0 0 0
2012 1 5.6439149478363486e+00 -1.3687552328870098e+00 1.3863723187739103e+01 0 0 0
2053 1 7.0760462542500662e+00 -5.9731632124050858e-03 1.2522906456554024e+01 0 0 0
2054 1 8.5077137053128062e+00 1.4353836199216117e+00 1.3977714737979527e+01 0 0 0
3057 1 9.7566470018898617e+00 -2.3055266850826147e-02 1.5254346189383408e+01 0 0 0
2020 1 1.1089569917526363e+01 -1.4104654615250427e+00 1.3818868793670424e+01 0 0 0
2062 1 1.3889966962527495e+01 1.1651227849559640e+00 1.4036831483055302e+01 0 0 0
2061 1 1.2533654479732565e+01 4.9997325520295927e-02 1.2523588112319173e+01 0 0 0
2028 1 1.6673414139634893e+01 -1.3234762342366264e+00 1.3862663006748729e+01 0 0 0
3065 1 1.5217956296829810e+01 -9.6554737563394000e-02 1.5289500768012301e+01 0 0 0
3033 1 2.0768800947309874e+01 -5.4290500102158319e+00 1.5310440310984072e+01 0 0 0
2070 1 1.9386107252555369e+01 1.3798778000811260e+00 1.3864249805954145e+01 0 0 0
2036 1 2.1976778904219135e+01 -1.4180113583222480e+00 1.3811393395808464e+01 0 0 0
3073 1 2.0706107556880013e+01 -5.7362712336150236e-02 1.5197805432697969e+01 0 0 0
4100 1 1.1086485414856252e+01 9.3328651840064545e+00 2.4812245305178170e+01 0 0 0
2044 1 2.9573659227220367e-01 3.9776947145149091e+00 1.3801262370448431e+01 0 0 0
3047 1 1.6864401461127305e+00 2.6547883527429375e+00 1.5227453756701671e+01 0 0 0
2051 1 4.3077540063511810e+00 2.7455430927119138e+00 1.2508844461739610e+01 0 0 0
2052 1 5.5878988361459276e+00 4.1055204959733809e+00 1.3745654627101390e+01 0 0 0
3055 1 6.8615953381795727e+00 2.7497838206833416e+00 1.5122119679084651e+01 0 0 0
2060 1 1.1131196533212133e+01 4.0775898378612458e+00 1.3932321232919367e+01 0 0 0
3063 1 1.2463214378831514e+01 2.6279662555470460e+00 1.5229403338369339e+01 0 0 0
2067 1 1.5211793296254626e+01 2.4957373462353734e+00 1.2578350365977494e+01 0 0 0