LAMMPS data file via write_data, version 30 Jul 2016, timestep = 50000

5000 atoms
1 atom types

-1.1037168688014471e+00 2.6103716868801385e+01 xlo xhi
-5.5185843440072304e+00 1.3051858434400725e+02 ylo yhi
-1.1037168688014471e+00 2.6103716868801385e+01 zlo zhi

Masses

1 28.0855

Atoms # atomic

2 1 3.2520074358220480e-01 -4.1841811854888631e+00 2.3248147056464177e-01 0 0 0
3 1 -8.9645234498985493e-01 -2.6886937847659449e+00 1.7455708072022846e+00 0 0 0
7 1 1.7230603512411131e+00 -2.8730855940459499e+00 -1.0850671669790082e+00 0 0 0
11 1 4.2726403132103821e+00 -2.6675228235884787e+00 1.7107624530047907e+00 0 0 0
10 1 5.8507930203400829e+00 -3.9582167715317609e+00 2.8331364708669748e-01 0 0 0
2009 1 4.3960091541254069e+00 -5.4780196800721512e+00 9.8775333097595315e+00 0 0 0
19 1 9.9306018601754076e+00 -2.6357545927128836e+00 1.6906072457820296e+00 0 0 0
1037 1 2.3511707018316887e+01 -5.4706757487979871e+00 7.1431305136275798e+00 0 0 0
18 1 1.1148238413200104e+01 -4.2032252081351107e+00 3.5862164085610293e-01 0 0 0
23 1 1.2591047378001262e+01 -2.9354400691333957e+00 -9.7520490759430556e-01 0 0 0
27 1 1.5106537910430976e+01 -2.8014980391931870e+00 1.6433055511925747e+00 0 0 0
26 1 1.6651433662056228e+01 -3.9932692294552905e+00 3.1474544232531748e-01 0 0 0
31 1 1.7971980344349607e+01 -2.6975445307309145e+00 -1.0798206943388862e+00 0 0 0
34 1 2.2128352783101395e+01 -3.9108454948340912e+00 3.2393912927653862e-01 0 0 0
35 1 2.0728198977570674e+01 -2.5912485675163039e+00 1.7192803477570058e+00 0 0 0
1029 1 1.8018458424553316e+01 -5.5100416374277472e+00 7.1082688578717450e+00 0 0 0
41 1 -1.0656381832505897e+00 -7.5184966901043052e-02 -1.0360841708133302e+00 0 0 0
45 1 1.5104337614923353e+00 7.8403645949104872e-02 1.5741174517741863e+00 0 0 0
1005 1 1.6592759853691124e+00 -5.4145610328520490e+00 7.0659021247680274e+00 0 0 0
8 1 2.9649443620073477e+00 -1.3678212535341445e+00 2.6069342085549063e-01 0 0 0
53 1 6.9616940564070262e+00 -2.3150415697633941e-02 1.7253094845705419e+00 0 0 0
50 1 5.7486743778888743e+00 1.3342716200921350e+00 1.5781794527152102e-01 0 0 0
16 1 8.4091469584401111e+00 -1.4583766152423501e+00 3.1341118338439500e-01 0 0 0
57 1 9.8917009290487989e+00 -1.6557130160142200e-01 -1.0181558904539982e+00 0 0 0
58 1 1.1253094886860321e+01 1.2884669210511974e+00 1.8824874531092892e-01 0 0 0
24 1 1.3929592722702298e+01 -1.4162928965016373e+00 2.3005100124570127e-01 0 0 0
61 1 1.2514927295760629e+01 -1.6653146092983351e-01 1.6959797232177507e+00 0 0 0
66 1 1.6619714995477576e+01 1.3567944597410226e+00 1.8779426743016434e-01 0 0 0
2021 1 1.2565630090325410e+01 -5.5110210956007961e+00 1.2407108106239303e+01 0 0 0
69 1 1.7908247514023333e+01 -9.8465600306627363e-02 1.4625070788415664e+00 0 0 0
32 1 1.9319351130268707e+01 -1.3676249269268772e+00 1.3073017768646938e-01 0 0 0
73 1 2.0620574196381060e+01 1.8791042284879080e-02 -1.0703941076731582e+00 0 0 0
77 1 2.3486885175915166e+01 7.4306402108608532e-02 1.6406118237688327e+00 0 0 0
40 1 2.4711109899698762e+01 -1.4795019030655860e+00 4.0595118897839733e-01 0 0 0
42 1 1.6916856326182164e-01 1.3531271740343520e+00 1.8519053826720699e-01 0 0 0
1009 1 4.3780697566836499e+00 -5.3319728940641369e+00 4.2530524728129011e+00 0 0 0
51 1 4.4384406250302169e+00 2.7447930015018613e+00 1.4906310960567037e+00 0 0 0
48 1 2.9814167752936229e+00 4.0170958921610023e+00 1.4712355236750710e-01 0 0 0
56 1 8.6793936561607943e+00 3.9166716837623912e+00 3.2021281285704312e-01 0 0 0
59 1 9.8892410492521101e+00 2.5141619934172099e+00 1.6887544245225967e+00 0 0 0
64 1 1.3833428040302847e+01 4.0487754364646280e+00 2.6347597028022229e-01 0 0 0
67 1 1.5242167425019892e+01 2.5995231210926688e+00 1.5847437765917973e+00 0 0 0
72 1 1.9361288570011354e+01 3.9899113149619394e+00 4.2648220254649472e-01 0 0 0
71 1 1.7986917879374495e+01 2.8019565863237887e+00 -1.0087563360134748e+00 0 0 0
74 1 2.1962021883644098e+01 1.2835552666074543e+00 3.6978470562470733e-01 0 0 0
75 1 2.0646697020993663e+01 2.6704007882732905e+00 1.7197364011711467e+00 0 0 0
79 1 2.3316023343476452e+01 2.6130754235768210e+00 -1.0549366754388518e+00 0 0 0
80 1 2.4672991557098278e+01 4.1043157889544730e+00 1.0309493910135815e-01 0 0 0
43 1 2.5969780402424494e+01 2.6528491401162695e+00 1.5402854700014874e+00 -1 0 0
82 1 3.2968343000728795e-01 6.8348899423856349e+00 3.5709424176253840e-01 0 0 0
85 1 1.5970450109678966e+00 5.4263454265148621e+00 1.6244284427432707e+00 0 0 0
1001 1 -9.5453955798218348e-01 -5.4720155195388145e+00 4.4497827169575546e+00 0 0 0
37 1 2.3572790714037129e+01 -5.3568327273258092e+00 1.6557057634570753e+00 0 0 0
91 1 4.3211907925869681e+00 8.1072899819421593e+00 1.6813254360030550e+00 0 0 0
90 1 5.6642882959890821e+00 6.6208722928079515e+00 2.5301024917997134e-01 0 0 0
93 1 6.9864175881064368e+00 5.2990913988005239e+00 1.6417977635288794e+00 0 0 0
98 1 1.1109054209246425e+01 6.7834176859617630e+00 4.3302072331078584e-01 0 0 0
101 1 1.2558928538076909e+01 5.3592130607799060e+00 1.6568588433105105e+00 0 0 0
106 1 1.6558516971785718e+01 6.7887435810687116e+00 3.0204397784933873e-01 0 0 0
2029 1 1.8022502815368991e+01 -5.4447854749430462e+00 1.2448152362927436e+01 0 0 0
109 1 1.7988678655624682e+01 5.4323905145427780e+00 1.6398047382483791e+00 0 0 0
114 1 2.1985245509285022e+01 6.6051194794980610e+00 2.5349357033596714e-01 0 0 0
115 1 2.0653264379215983e+01 8.1600174788188280e+00 1.5068278272320925e+00 0 0 0
113 1 2.0694563656465292e+01 5.2867153004471881e+00 -1.0722237652127498e+00 0 0 0
117 1 2.3391633950307973e+01 5.3532735302813910e+00 1.6585398628164649e+00 0 0 0
81 1 2.6042850141949547e+01 5.5870053585739221e+00 -1.0732437855342669e+00 -1 0 0
125 1 1.5713221266844193e+00 1.0805339466170771e+01 1.6085230369941383e+00 0 0 0
88 1 3.0249091112824109e+00 9.5468508204275224e+00 2.7298087522038272e-01 0 0 0
33 1 2.0712187592735940e+01 -5.4881869449779401e+00 -1.0188256811940473e+00 0 0 0
133 1 6.9616751820956173e+00 1.0686184514837697e+01 1.6807167881261027e+00 0 0 0
99 1 9.6696731243768692e+00 8.1276448257955938e+00 1.7003367043486253e+00 0 0 0
96 1 8.3572790848716387e+00 9.5196715106683634e+00 2.5172937893520064e-01 0 0 0
29 1 1.8051952650907275e+01 -5.3723379991663478e+00 1.6612667895710431e+00 0 0 0
103 1 1.2385432339643275e+01 8.0669229667839524e+00 -1.0626883021220428e+00 0 0 0
104 1 1.3792625995179577e+01 9.4437162152321310e+00 1.3552470585647411e-01 0 0 0
141 1 1.2502410144269792e+01 1.0837460528500065e+01 1.5894700547191989e+00 0 0 0
107 1 1.5072769708432908e+01 8.1183124401917457e+00 1.4893479796588716e+00 0 0 0
25 1 1.5345670807708023e+01 -5.4095841069155597e+00 -9.6581421801309975e-01 0 0 0
149 1 1.7782845414589367e+01 1.0828858970712284e+01 1.5708677232146644e+00 0 0 0
112 1 1.9252430319166166e+01 9.5597630967735991e+00 1.5820950421884908e-01 0 0 0
157 1 2.3293244049582004e+01 1.0974755446969089e+01 1.4745665522048141e+00 0 0 0
120 1 2.4705637460390424e+01 9.5193705523473113e+00 2.3776174117130647e-01 0 0 0
83 1 2.5990204807217484e+01 8.2374415594414216e+00 1.6146076847696511e+00 -1 0 0
13 1 7.2474545493402456e+00 -5.3892538730618753e+00 1.5640109943459977e+00 0 0 0
1007 1 1.5875112724371430e+00 -2.6617722439486324e+00 4.2555950701484280e+00 0 0 0
6 1 2.9201001421048431e+00 -4.0402702585001995e+00 2.9712388574949609e+00 0 0 0
1015 1 7.0514992231604543e+00 -2.7611176262047823e+00 4.3230010140405621e+00 0 0 0
1010 1 5.7206058222939165e+00 -4.0450455313729563e+00 5.8204112368166454e+00 0 0 0
14 1 8.4823713554508142e+00 -4.0420748168309331e+00 3.0430029511671499e+00 0 0 0
1017 1 9.7397820884445956e+00 -5.5065185114383297e+00 4.4325566420993718e+00 0 0 0
1018 1 1.1242516571096751e+01 -4.0768369157458455e+00 5.6662492817556993e+00 0 0 0
22 1 1.3847515061292757e+01 -4.1427871938259910e+00 3.0374228545994244e+00 0 0 0
1023 1 1.2632193148899995e+01 -2.8012534081762515e+00 4.4536553386416049e+00 0 0 0
1031 1 1.7940162588290665e+01 -2.7757768052854908e+00 4.2698962365697115e+00 0 0 0
30 1 1.9385574846329490e+01 -4.0326178606869307e+00 3.0057192051972557e+00 0 0 0
1033 1 2.0803471741957473e+01 -5.3417417799215512e+00 4.4039638497212490e+00 0 0 0
38 1 2.4947415957758530e+01 -3.9996296632021719e+00 3.1332741358151792e+00 0 0 0
1039 1 2.3449077478348805e+01 -2.5020679685743286e+00 4.3928588825844637e+00 0 0 0
4 1 2.0999006910648060e-01 -1.2114321703150639e+00 3.0816369581376954e+00 0 0 0
1042 1 2.6442431368524988e-01 1.5493952507346238e+00 5.8546206557299447e+00 0 0 0
1049 1 4.2671635755691000e+00 6.9501945386147679e-02 4.4531463651941161e+00 0 0 0
1008 1 2.9050126380335994e+00 -1.4412795343995415e+00 5.7524284168869970e+00 0 0 0
12 1 5.5684408689297298e+00 -1.4106147871581536e+00 3.0149425791701088e+00 0 0 0
54 1 8.4309722255405255e+00 1.3122815543878492e+00 3.0834322607702012e+00 0 0 0
1057 1 9.7740643685405111e+00 -6.6467601734321230e-02 4.3617443727007466e+00 0 0 0
1016 1 8.3273631451472614e+00 -1.2928382585946638e+00 5.6794149830984617e+00 0 0 0
20 1 1.1189648925675835e+01 -1.4505444328635788e+00 3.1472083520560883e+00 0 0 0
1058 1 1.1108381699959827e+01 1.4270575044351870e+00 5.7573071820677439e+00 0 0 0
1024 1 1.3917573284446586e+01 -1.3781245591861770e+00 5.7159712251623329e+00 0 0 0
1065 1 1.5232063643890170e+01 -1.8983478473529394e-02 4.3318494026755729e+00 0 0 0
28 1 1.6449696609428177e+01 -1.3798592673473882e+00 2.8764191393095655e+00 0 0 0
1073 1 2.0516561664552881e+01 1.0656944138981260e-01 4.4030850750085850e+00 0 0 0
36 1 2.1989282153590395e+01 -1.1515701764046731e+00 3.0597281494300139e+00 0 0 0
1041 1 -1.0571195333970991e+00 7.5994016859311245e-02 4.4326545095816368e+00 0 0 0
78 1 2.4768011426294983e+01 1.3362064621390790e+00 3.1335771227758382e+00 0 0 0
44 1 2.3970066090625897e-01 4.0567169058791244e+00 3.0707686510600860e+00 0 0 0
1047 1 1.6207745982458102e+00 2.7873322964858858e+00 4.3404679377190227e+00 0 0 0
46 1 3.1182979658372458e+00 1.4129037783130665e+00 2.9322833816321578e+00 0 0 0
1048 1 3.1142374716055219e+00 4.0766545709162498e+00 5.6329153039259898e+00 0 0 0
52 1 5.8381037149626485e+00 3.8679804486648148e+00 3.0599688751183143e+00 0 0 0
1055 1 7.1775006596766211e+00 2.6402982699071482e+00 4.5061959559883276e+00 0 0 0
1056 1 8.4642586878777184e+00 4.1192289762813630e+00 5.8043624651196239e+00 0 0 0
60 1 1.1112774724520447e+01 4.0824794005010796e+00 3.0117202863442079e+00 0 0 0
62 1 1.3865089411209732e+01 1.2961614308351161e+00 2.9310158828892652e+00 0 0 0
1063 1 1.2541783010865942e+01 2.7097977140787202e+00 4.2574555130518625e+00 0 0 0
68 1 1.6668729556235910e+01 4.0378226096573027e+00 2.9289786444368704e+00 0 0 0
1071 1 1.7916685810918075e+01 2.7717619633590060e+00 4.3687860294204484e+00 0 0 0
70 1 1.9185175875217229e+01 1.2707797315090299e+00 2.9526589795721585e+00 0 0 0
76 1 2.2017510121431634e+01 4.0766132685258158e+00 3.0396571622149962e+00 0 0 0
1079 1 2.3456169766815336e+01 2.7270877664537863e+00 4.4445791457863155e+00 0 0 0
1087 1 1.5829487738496320e+00 8.0422431950834916e+00 4.3604287462800322e+00 0 0 0
1089 1 4.4498869311847198e+00 5.3633058772954580e+00 4.2457306849983087e+00 0 0 0
86 1 3.0189804802021780e+00 6.7198824394457617e+00 2.9835215196697797e+00 0 0 0
94 1 8.2687233108344049e+00 6.8194082409239343e+00 2.9886993526840038e+00 0 0 0
1097 1 9.8150867077794359e+00 5.4534243556188278e+00 4.3112002721442515e+00 0 0 0
1103 1 1.2544396914003222e+01 8.0630064250376066e+00 4.1902181808592829e+00 0 0 0
102 1 1.3990411111504928e+01 6.6948825984416773e+00 2.9398678425108797e+00 0 0 0
1105 1 1.5296041128818080e+01 5.4005390397142934e+00 4.2430568600383261e+00 0 0 0
110 1 1.9307067009087106e+01 6.7770592251732129e+00 2.9692090392774504e+00 0 0 0
1113 1 2.0663409255110636e+01 5.3593067051102050e+00 4.4576989463398258e+00 0 0 0
118 1 2.4688029851978115e+01 6.7376627094238275e+00 2.9774196631768675e+00 0 0 0
1119 1 2.3210550470301026e+01 8.1034698171343944e+00 4.3481755415080272e+00 0 0 0
1081 1 2.6083370106563763e+01 5.2662996950062375e+00 4.4314334573508436e+00 -1 0 0
84 1 2.4217379894550664e-01 9.4851718615348872e+00 3.1256984483556156e+00 0 0 0
1129 1 4.3133630942730656e+00 1.0847935286499869e+01 4.4108585716781246e+00 0 0 0
1095 1 6.9148586186731800e+00 8.0858878930691347e+00 4.3707972625517781e+00 0 0 0
92 1 5.5720626325484055e+00 9.3869097585077466e+00 3.0389151363891411e+00 0 0 0
1137 1 9.6349527345787873e+00 1.0748521757194318e+01 4.4920433679928875e+00 0 0 0
100 1 1.1183865769261351e+01 9.4230653835222142e+00 3.0070196559581235e+00 0 0 0
1145 1 1.5087109156480423e+01 1.0620726199388013e+01 4.3911754934698646e+00 0 0 0
108 1 1.6502026273681405e+01 9.3267511763008830e+00 2.9268794979962616e+00 0 0 0
1111 1 1.7910096964766602e+01 8.1100986371986004e+00 4.4400414273315381e+00 0 0 0
1153 1 2.0563631438989720e+01 1.0908276457583497e+01 4.3540269232945930e+00 0 0 0
116 1 2.1890749994035883e+01 9.4883268161947036e+00 2.8500764786459030e+00 0 0 0
1120 1 2.4601283605260527e+01 9.2931196662005515e+00 5.6135540602566998e+00 0 0 0
1121 1 2.5980300500332181e+01 1.0739148872067608e+01 4.4651606313834868e+00 -1 0 0
1002 1 3.8740612617597286e-01 -4.0583695628901388e+00 5.6797417305438946e+00 0 0 0
1011 1 4.4393046891391039e+00 -2.7791073799562969e+00 7.1524128473937987e+00 0 0 0
1006 1 2.9520783183697010e+00 -4.1440734188893309e+00 8.4232594399511598e+00 0 0 0
1013 1 7.1246554530094475e+00 -5.4836728665884085e+00 7.0702518352571051e+00 0 0 0
1019 1 9.7381684678572302e+00 -2.8000644035056048e+00 6.9962483646539697e+00 0 0 0
1014 1 8.3814419381975789e+00 -4.0491557294606384e+00 8.3587819269173274e+00 0 0 0
1021 1 1.2510054412627134e+01 -5.4875973820035924e+00 7.0164309065130031e+00 0 0 0
1022 1 1.4002873591269816e+01 -4.2096917204607278e+00 8.3688426149849224e+00 0 0 0
1027 1 1.5215610620459795e+01 -2.8400662662822937e+00 7.1537177483149295e+00 0 0 0
1026 1 1.6538640568625276e+01 -4.1732221277864463e+00 5.7601868877063049e+00 0 0 0
1030 1 1.9501726414185182e+01 -4.1414566063540352e+00 8.3804126732427928e+00 0 0 0
1034 1 2.2208531048727910e+01 -3.9604647801795978e+00 5.8229358149334818e+00 0 0 0
1035 1 2.0680047486250118e+01 -2.6387870771615392e+00 6.8508991816883045e+00 0 0 0
1038 1 2.4879020908791595e+01 -4.1082888967144626e+00 8.4601614895540180e+00 0 0 0
1003 1 -9.9305951913854429e-01 -2.7263187153689334e+00 7.0736362508179180e+00 0 0 0
1045 1 1.6923815310121930e+00 8.0227960682808894e-02 7.1176898055811959e+00 0 0 0
1004 1 3.9398969778384579e-01 -1.3184135368132066e+00 8.4596306140170974e+00 0 0 0
1053 1 7.0091516882901130e+00 -6.0064562045479171e-02 7.0715711353500534e+00 0 0 0
1012 1 5.7898372049616009e+00 -1.4735830696766996e+00 8.5954496794438278e+00 0 0 0
1020 1 1.1157738401669061e+01 -1.5299428419932752e+00 8.4229251739687800e+00 0 0 0
1061 1 1.2395534576883746e+01 2.6870855184282817e-03 7.1985743037172112e+00 0 0 0
1028 1 1.6623433908640770e+01 -1.3376237852540096e+00 8.3839453821170817e+00 0 0 0
1069 1 1.7985583182593892e+01 2.6379780476049651e-03 7.0012354225165030e+00 0 0 0
1032 1 1.9198218459206405e+01 -1.2809951133781248e+00 5.6730871632183337e+00 0 0 0
1074 1 2.1919021712021550e+01 1.3997015244350279e+00 5.6937792079762648e+00 0 0 0
1036 1 2.2073084155210502e+01 -1.2742438384053898e+00 8.3448746063551713e+00 0 0 0
1077 1 2.3420999207161593e+01 1.1659862311346783e-01 7.0388999585156196e+00 0 0 0
1040 1 2.4863943341470918e+01 -1.2694695074729694e+00 5.7831890626390328e+00 0 0 0
1044 1 3.8227609977141391e-01 4.1333957683573042e+00 8.4044769354452100e+00 0 0 0
1051 1 4.4630918731368130e+00 2.6590106589008862e+00 7.1143591813614053e+00 0 0 0
1046 1 3.0663655675034778e+00 1.3079450033959752e+00 8.4393167069039112e+00 0 0 0
1050 1 5.7168440269959788e+00 1.2931777577300143e+00 5.7181189672286896e+00 0 0 0
1052 1 5.6638348520014832e+00 4.1424422656151192e+00 8.4190284227590997e+00 0 0 0
1059 1 9.8021888028290434e+00 2.7274506866066708e+00 7.0297840369949922e+00 0 0 0
1054 1 8.4379572093750426e+00 1.2734171569678723e+00 8.4249187480345764e+00 0 0 0
1060 1 1.1217294630782334e+01 3.8790311170927447e+00 8.4352393252206035e+00 0 0 0
1064 1 1.3968497265389344e+01 4.0919554923078545e+00 5.6132248100543976e+00 0 0 0
1062 1 1.3886187851885241e+01 1.2290118769540945e+00 8.3231710225524083e+00 0 0 0
1066 1 1.6573929649138584e+01 1.3799322075544995e+00 5.7155734755321568e+00 0 0 0
1067 1 1.5173655299043141e+01 2.6938704106127371e+00 7.0989343952280555e+00 0 0 0
1068 1 1.6621816829414826e+01 4.0701898506673295e+00 8.3868940277917172e+00 0 0 0
1072 1 1.9163193002622286e+01 4.0591404126061734e+00 5.7484822296554396e+00 0 0 0
1070 1 1.9289840307564837e+01 1.4080238802652103e+00 8.4813967578085911e+00 0 0 0
1075 1 2.0507629957380463e+01 2.7341302765014825e+00 7.1259991362028829e+00 0 0 0
1076 1 2.2026725737876454e+01 4.0721347792049203e+00 8.5449404603696948e+00 0 0 0
1080 1 2.4694934749057222e+01 4.0811822814832519e+00 5.8958369823857222e+00 0 0 0
1078 1 2.4690403376906662e+01 1.4209729527102182e+00 8.5336988198458563e+00 0 0 0
1043 1 -1.0477591086641667e+00 2.7983561988487207e+00 7.2578657364440371e+00 0 0 0
1082 1 3.3969828624872672e-01 6.7263051558897127e+00 5.6434877871343367e+00 0 0 0
1085 1 1.7772274501522762e+00 5.4044000088849291e+00 7.0555190497098197e+00 0 0 0
1091 1 4.2906942571364350e+00 8.1007382177765752e+00 7.0938087198973312e+00 0 0 0
1086 1 2.9504169070979143e+00 6.8659843986086706e+00 8.5444848348068874e+00 0 0 0
1090 1 5.6989390264779871e+00 6.7366978742532293e+00 5.7694380487332610e+00 0 0 0
1093 1 6.9804090260014480e+00 5.4729658931172569e+00 7.0394793901650825e+00 0 0 0
1099 1 9.8205228968737188e+00 8.0612353639230747e+00 7.0127498489950026e+00 0 0 0
1094 1 8.5161432093299876e+00 6.6255890395084984e+00 8.3602630342676161e+00 0 0 0
1098 1 1.1136904918642136e+01 6.7244686603679016e+00 5.6072322340784533e+00 0 0 0
1101 1 1.2476160545166147e+01 5.2842973598711795e+00 6.9744979240780767e+00 0 0 0
1102 1 1.3951791312907092e+01 6.5266544723270172e+00 8.3620317240342050e+00 0 0 0
1106 1 1.6517999600991260e+01 6.7198042667654105e+00 5.6665548383858173e+00 0 0 0
1109 1 1.7975002376562674e+01 5.5658260344445747e+00 7.1229194605871653e+00 0 0 0
1110 1 1.9404313001019887e+01 6.7873678535425084e+00 8.5553754080282403e+00 0 0 0
1114 1 2.1929726039816416e+01 6.7623313259843982e+00 5.8816645851957245e+00 0 0 0
1117 1 2.3296125003619419e+01 5.4185120895947314e+00 7.2369547381019945e+00 0 0 0
1118 1 2.4698058333356368e+01 6.7393365912147649e+00 8.4017460656856393e+00 0 0 0
1083 1 -1.0726977323052402e+00 8.0789351848594073e+00 6.8818800197339769e+00 0 0 0
1125 1 1.6372050166658212e+00 1.0897975677404917e+01 7.0168493028892067e+00 0 0 0
1084 1 1.8174778061864344e-01 9.4761830042195836e+00 8.3778582266439692e+00 0 0 0
1088 1 2.8928095112154044e+00 9.4464378491618248e+00 5.6843067030673859e+00 0 0 0
1133 1 7.0170227569284798e+00 1.0826834903807519e+01 7.0477969058695731e+00 0 0 0
1092 1 5.6631721787871285e+00 9.4392071557355379e+00 8.5050680896358184e+00 0 0 0
1096 1 8.2784413196880546e+00 9.3422599249960179e+00 5.7952543737632949e+00 0 0 0
1141 1 1.2425114614908621e+01 1.0698868212903896e+01 7.2549551276604083e+00 0 0 0
1100 1 1.1115620671718350e+01 9.3753204893579998e+00 8.4473123307795355e+00 0 0 0
1104 1 1.3696604261499813e+01 9.2841081907053731e+00 5.8464664474205907e+00 0 0 0
1107 1 1.5201389118932470e+01 8.0191716120838699e+00 6.9999010976341092e+00 0 0 0
1108 1 1.6412438787147899e+01 9.3363176375512857e+00 8.5059231573694110e+00 0 0 0
1149 1 1.7789339349957935e+01 1.0759550322584696e+01 7.2305887499126209e+00 0 0 0
1112 1 1.9246983183340003e+01 9.4620812835425543e+00 5.7899509363244519e+00 0 0 0
1115 1 2.0685977396931875e+01 8.1612583380910309e+00 7.1510378263177063e+00 0 0 0
1116 1 2.1991336063532604e+01 9.5567105740408387e+00 8.4698479843981467e+00 0 0 0
1157 1 2.3218185228597605e+01 1.0768442740168165e+01 7.0363610141992945e+00 0 0 0
2007 1 1.6323322716745803e+00 -2.8238980218372216e+00 9.7213226984881231e+00 0 0 0
2002 1 3.0095774815260784e-01 -4.1240644086114333e+00 1.1139663042365962e+01 0 0 0
2121 1 2.6010112794547616e+01 1.0718187323276409e+01 9.7582511724548961e+00 -1 0 0
2003 1 -1.0012692322439380e+00 -2.7223267567463711e+00 1.2469331375989212e+01 0 0 0
2011 1 4.2950792182442621e+00 -2.7539450288315996e+00 1.2439819229080619e+01 0 0 0
2015 1 7.1441279862041105e+00 -2.8556130911890740e+00 9.8503038197422690e+00 0 0 0
2010 1 5.7135805951702077e+00 -4.1607833813848654e+00 1.1192363447316842e+01 0 0 0
2017 1 9.8105822896530839e+00 -5.4551746790959088e+00 9.5557899203592829e+00 0 0 0
2023 1 1.2599803147138930e+01 -2.7852679082698208e+00 9.7677790700966582e+00 0 0 0
2018 1 1.1179957668785535e+01 -4.2336262394616462e+00 1.1204834897394505e+01 0 0 0
2025 1 1.5351724718918790e+01 -5.4995895708612412e+00 9.6883239826227623e+00 0 0 0
2026 1 1.6673201913498659e+01 -4.1359188367306254e+00 1.1130471765986890e+01 0 0 0
2031 1 1.8019504092704793e+01 -2.7851535227753450e+00 9.7189406132962599e+00 0 0 0
2034 1 2.2200294682637200e+01 -4.2151582680214377e+00 1.1179298058178798e+01 0 0 0
2039 1 2.3340696851641891e+01 -2.7243357598259923e+00 9.7324620323893711e+00 0 0 0
2042 1 3.7141288070969136e-01 1.4185032655434635e+00 1.1213470812399256e+01 0 0 0
2041 1 -9.8257392360789741e-01 1.1264410345424786e-01 9.7505238968560981e+00 0 0 0
2049 1 4.4262315681738462e+00 -1.2553707832313838e-02 9.9228337516722220e+00 0 0 0
2008 1 3.0279660563526782e+00 -1.5686967576339410e+00 1.1073845413877828e+01 0 0 0
2057 1 9.8888520837008791e+00 -5.9170581837043670e-02 9.5922761053246077e+00 0 0 0
2016 1 8.4041983454716718e+00 -1.2234195005294743e+00 1.1058950331512925e+01 0 0 0
2024 1 1.3858996035391383e+01 -1.3527755996294950e+00 1.1184461634301782e+01 0 0 0
2065 1 1.5254197676253611e+01 -1.6151789167760507e-02 9.7660899797606984e+00 0 0 0
2066 1 1.6546549331512981e+01 1.4039166213157108e+00 1.1084510942417877e+01 0 0 0
2032 1 1.9499041450699899e+01 -1.5048221806405127e+00 1.1133199904347425e+01 0 0 0
2073 1 2.0721558388688710e+01 -3.8041901782935428e-02 9.7948943194772564e+00 0 0 0
2040 1 2.4819674462889203e+01 -1.3943212904219915e+00 1.1071963111142665e+01 0 0 0
2047 1 1.7289441678252875e+00 2.7081892890278234e+00 9.8438889098605635e+00 0 0 0
2001 1 -1.0338212526904265e+00 -5.4687428245188698e+00 9.7498249007738167e+00 0 0 0
2048 1 3.0817884377554052e+00 3.9997960678404199e+00 1.1205577438357496e+01 0 0 0
2055 1 6.9600451787770528e+00 2.6795106697324531e+00 9.6251043306738779e+00 0 0 0
2050 1 5.7712771244665486e+00 1.3774829504936625e+00 1.1140999350712969e+01 0 0 0
2056 1 8.4436062245848316e+00 4.0248400696102893e+00 1.1152229588604273e+01 0 0 0
9 1 4.4783055180982538e+00 -5.4448102298568415e+00 -1.0037471969203569e+00 0 0 0
2058 1 1.1173251734666291e+01 1.3030413377439003e+00 1.1064178250983645e+01 0 0 0
2064 1 1.3967134109930610e+01 3.9623075392745122e+00 1.1175683813233638e+01 0 0 0
2063 1 1.2677744190144335e+01 2.5519897874765594e+00 9.7796130940883064e+00 0 0 0
2071 1 1.7893097609680215e+01 2.7473672690320705e+00 9.8204406357922664e+00 0 0 0
2072 1 1.9306044483313560e+01 4.0537172795450758e+00 1.1214637359113077e+01 0 0 0
2074 1 2.2127461546922138e+01 1.4255308307865593e+00 1.1199766516824155e+01 0 0 0
2079 1 2.3476214147764779e+01 2.8551074430573262e+00 9.9166796041916143e+00 0 0 0
2080 1 2.4869120014388592e+01 4.1547343689254301e+00 1.1214785070774905e+01 0 0 0
2082 1 4.3542752995118988e-01 6.8562722759246375e+00 1.1183748075881086e+01 0 0 0
2081 1 -9.6368884901357355e-01 5.5807999105923667e+00 9.8275761683547973e+00 0 0 0
2089 1 4.2741928913706539e+00 5.4579816141468855e+00 9.9341315589471400e+00 0 0 0
2090 1 5.7006488805784512e+00 6.8362838539186388e+00 1.1056065104351500e+01 0 0 0
2097 1 9.8569136269707780e+00 5.3014810764013092e+00 9.7579862301124667e+00 0 0 0
2098 1 1.1250296607014731e+01 6.7178372134646391e+00 1.1095260934945037e+01 0 0 0
2105 1 1.5329161588317765e+01 5.2518496937694295e+00 9.8123229261288110e+00 0 0 0
2106 1 1.6455105546798055e+01 6.7854813002835295e+00 1.1176446613950880e+01 0 0 0
2111 1 1.7879133131064378e+01 8.0992281327717883e+00 9.8310772373181958e+00 0 0 0
2113 1 2.0809286573143503e+01 5.4422501064900910e+00 9.9012777436626855e+00 0 0 0
2114 1 2.2060690596003109e+01 6.8918248522915269e+00 1.1281722681606567e+01 0 0 0
2119 1 2.3458539802306298e+01 8.2213222006992623e+00 9.7393808258455241e+00 0 0 0
5 1 1.6094512903831411e+00 -5.4130611860186377e+00 1.6929657962081714e+00 0 0 0
2087 1 1.6063428194138871e+00 8.2589684081289203e+00 9.9360787988859727e+00 0 0 0
2129 1 4.1780096846305739e+00 1.0743332886279905e+01 9.8226615241886659e+00 0 0 0
2088 1 2.8933987996656678e+00 9.5180116696304928e+00 1.1312848209682668e+01 0 0 0
2095 1 7.1377690782036645e+00 8.0067090526660749e+00 9.6394627557671502e+00 0 0 0
2137 1 9.7827024783907621e+00 1.0846012921702677e+01 9.7386221443182670e+00 0 0 0
2096 1 8.5442151105427886e+00 9.3747437169244563e+00 1.1115233219649260e+01 0 0 0
2103 1 1.2701343850362663e+01 8.0135665884094980e+00 9.7166730600247959e+00 0 0 0
2104 1 1.3797053676089343e+01 9.5263843088530109e+00 1.1121620827431000e+01 0 0 0
2145 1 1.5110893424527569e+01 1.0886908895362531e+01 9.7553723459744894e+00 0 0 0
2112 1 1.9412560429774985e+01 9.4887668160905267e+00 1.1051737840970139e+01 0 0 0
2153 1 2.0774682668886197e+01 1.0986035218973393e+01 9.7447997865223339e+00 0 0 0
2120 1 2.4706658911840897e+01 9.4609879094407585e+00 1.1206407354082684e+01 0 0 0
2019 1 9.8192054241992039e+00 -2.5667019916619953e+00 1.2414503747268393e+01 0 0 0
2027 1 1.5330304545851009e+01 -2.6470791795301603e+00 1.2430301901227260e+01 0 0 0
2045 1 1.6586864163815558e+00 -1.5405932736646094e-01 1.2458792561228176e+01 0 0 0
2069 1 1.7997740329142381e+01 -1.3630888352807822e-02 1.2414971642889473e+01 0 0 0
2051 1 4.3452824229626126e+00 2.7604598870892167e+00 1.2496758646633088e+01 0 0 0
2085 1 1.6737586706656560e+00 5.4526616202969072e+00 1.2378903126342072e+01 0 0 0
2093 1 7.1185674501518497e+00 5.5292660427005114e+00 1.2428781745058409e+01 0 0 0
2109 1 1.7813483883533710e+01 5.3377466085609289e+00 1.2430714201655073e+01 0 0 0
2133 1 7.0793827748729372e+00 1.0744077399581998e+01 1.2463265883070109e+01 0 0 0
2149 1 1.7883822897722535e+01 1.0841196219646172e+01 1.2441512835578646e+01 0 0 0
2115 1 2.0630889294532725e+01 8.1934496480544770e+00 1.2477707012694632e+01 0 0 0
2083 1 -1.0690831499859677e+00 8.0312038955197664e+00 1.2477673828231985e+01 0 0 0
95 1 7.0383122516548671e+00 8.0016363934914239e+00 -1.0495419601359295e+00 0 0 0
97 1 9.9323951979426717e+00 5.3174021180827493e+00 -1.0716823411385121e+00 0 0 0
119 1 2.3324603772328253e+01 8.0582417717917370e+00 -1.0255713290010426e+00 0 0 0
3007 1 1.6094210775150355e+00 -2.7432866498432658e+00 1.5252667548484276e+01 0 0 0
3001 1 -1.0035345303965639e+00 -5.3650809377915900e+00 1.5168769868235179e+01 0 0 0
2006 1 2.9026172757525268e+00 -4.1180788384534974e+00 1.3721161513908696e+01 0 0 0
3015 1 7.0842413288466171e+00 -2.7122977390746117e+00 1.5133473389435654e+01 0 0 0
2014 1 8.6304590405856469e+00 -3.9738298524814515e+00 1.3952984256016686e+01 0 0 0
3037 1 2.3491471357306143e+01 -5.3819492538902409e+00 1.8036394248533899e+01 0 0 0
4157 1 2.3433744596395478e+01 1.0694845237933487e+01 2.3221524267471327e+01 0 0 0
2022 1 1.3852014506066890e+01 -4.0588885972570266e+00 1.3690746648329460e+01 0 0 0
3023 1 1.2545446811574708e+01 -2.8483224515777170e+00 1.5218883663466952e+01 0 0 0
4029 1 1.7916520631826049e+01 -5.3423154488471880e+00 2.3314788482425012e+01 0 0 0
2030 1 1.9440786658279240e+01 -4.1721105711897932e+00 1.3972278099542946e+01 0 0 0
3031 1 1.7868591779835604e+01 -2.6981499934728252e+00 1.5249723342563625e+01 0 0 0
2035 1 2.0803347542934649e+01 -2.8839231050022063e+00 1.2510939656746938e+01 0 0 0
153 1 2.0677121513156870e+01 1.0850287057350860e+01 2.6024064986932462e+01 0 0 -1
2038 1 2.4740230822992668e+01 -3.9880867556721951e+00 1.3765032529420699e+01 0 0 0
3039 1 2.3363540980185512e+01 -2.7400801699284623e+00 1.5232682358690658e+01 0 0 0
3029 1 1.7956389611976547e+01 -5.4337089921189943e+00 1.8068652605012357e+01 0 0 0
2004 1 3.0599987612661889e-01 -1.2803814202274317e+00 1.3908066835450654e+01 0 0 0
3041 1 2.6081887860672577e+01 -1.6984928183989341e-02 1.5254531100514788e+01 -1 0 0
2046 1 3.0368239168638511e+00 1.2685925911310785e+00 1.3876504492176281e+01 0 0 0
3049 1 4.3155647017793539e+00 -1.9423526490794824e-01 1.5255424803935654e+01 0 0 0
2012 1 5.6642641117460952e+00 -1.4047724245840327e+00 1.3879888789567197e+01 0 0 0
2053 1 7.0739659413259357e+00 -3.3665640433269362e-02 1.2514073850938622e+01 0 0 0
2054 1 8.4565204904801128e+00 1.3174452609389153e+00 1.3932002524229851e+01 0 0 0
3057 1 9.7733414014386142e+00 -5.9748990305191117e-02 1.5249703918941590e+01 0 0 0
2020 1 1.1156120075231795e+01 -1.3672631001523781e+00 1.3782005658312722e+01 0 0 0
2062 1 1.3954442862887946e+01 1.1903725719617269e+00 1.4031277210657780e+01 0 0 0
2061 1 1.2565878583114307e+01 1.0221048766871110e-01 1.2544384901137434e+01 0 0 0
2028 1 1.6649635024792079e+01 -1.3261906166485444e+00 1.3918703632048718e+01 0 0 0
3065 1 1.5293581444574022e+01 -9.5635917716761540e-02 1.5305042148600529e+01 0 0 0
3005 1 1.5039415213939642e+00 -5.4909363109328524e+00 1.8002089267674741e+01 0 0 0
2070 1 1.9352635809009278e+01 1.3928005713134766e+00 1.3897253722759507e+01 0 0 0
2036 1 2.2010662972271383e+01 -1.4034380716862633e+00 1.3838638705055908e+01 0 0 0
3073 1 2.0737069521850120e+01 -1.4718492016776261e-02 1.5203968599271874e+01 0 0 0
2077 1 2.3411702970467100e+01 -3.0776903689183420e-02 1.2511432922245287e+01 0 0 0
2044 1 2.4514623447100284e-01 4.0327996575244178e+00 1.3789873565546207e+01 0 0 0
3047 1 1.7165963777886080e+00 2.6908287588959134e+00 1.5155051759421996e+01 0 0 0
3033 1 2.0784386248644481e+01 -5.4782134011576318e+00 1.5301634109243386e+01 0 0 0
2052 1 5.6015229620093496e+00 4.1225247252477004e+00 1.3734203580920795e+01 0 0 0
3055 1 6.8939032313298556e+00 2.7614884382417215e+00 1.5051740605339550e+01 0 0 0
2060 1 1.1129035820367505e+01 4.0094881801026236e+00 1.3894357468468982e+01 0 0 0
3063 1 1.2531520033772809e+01 2.6392658751393139e+00 1.5238316426639265e+01 0 0 0