LAMMPS data file via write_data, version 30 Jul 2016, timestep = 50000

5000 atoms
1 atom types

-1.1037168688014471e+00 2.6103716868801385e+01 xlo xhi
-5.5185843440072304e+00 1.3051858434400725e+02 ylo yhi
-1.1037168688014471e+00 2.6103716868801385e+01 zlo zhi

Masses

1 28.0855

Atoms # atomic

2 1 3.3661819367272849e-01 -4.1626716849675329e+00 2.7116453705958138e-01 0 0 0
3 1 -9.3122909916003860e-01 -2.6637809398931522e+00 1.7439631812518643e+00 0 0 0
7 1 1.6891877860925710e+00 -2.8631799057871747e+00 -1.0866011919780496e+00 0 0 0
11 1 4.2928421565238502e+00 -2.6968368818027009e+00 1.6906943244338235e+00 0 0 0
10 1 5.8443874340804260e+00 -3.9967363414222863e+00 2.7067165503340851e-01 0 0 0
2009 1 4.3878781719845410e+00 -5.4983200555409724e+00 9.8549097411333442e+00 0 0 0
19 1 9.9246594753480313e+00 -2.6347354471181457e+00 1.7159829779730560e+00 0 0 0
1037 1 2.3506535951449660e+01 -5.4324857283550045e+00 7.1533287066355564e+00 0 0 0
18 1 1.1138779478159046e+01 -4.1964942001790106e+00 3.4286681019216886e-01 0 0 0
23 1 1.2589794453043391e+01 -2.9417905140216969e+00 -1.0569298076575810e+00 0 0 0
27 1 1.5104502278001860e+01 -2.8365090277458807e+00 1.6705761928951348e+00 0 0 0
26 1 1.6627031383180213e+01 -4.0069864345551141e+00 3.0653338986391471e-01 0 0 0
1029 1 1.8009766171753913e+01 -5.4817748902636367e+00 7.1107226529291543e+00 0 0 0
34 1 2.2134487692718931e+01 -3.8937229133958087e+00 3.0946559787831057e-01 0 0 0
35 1 2.0747899367160120e+01 -2.5544563174587913e+00 1.6723876088073542e+00 0 0 0
1005 1 1.6959035418923771e+00 -5.3730857197759860e+00 7.0798225278043665e+00 0 0 0
41 1 -1.0049872102001167e+00 -3.7020207444818806e-02 -1.0018324227084110e+00 0 0 0
45 1 1.5163924500019663e+00 2.8588862148689609e-02 1.6027763644692983e+00 0 0 0
1009 1 4.3577372111923793e+00 -5.3795435006109642e+00 4.2335362426121872e+00 0 0 0
8 1 2.9128527132695359e+00 -1.3338858072804105e+00 2.7059173227778704e-01 0 0 0
53 1 7.0098847339748671e+00 -1.7847674787445734e-02 1.7459752788290019e+00 0 0 0
50 1 5.7367773718877233e+00 1.3358594372164505e+00 1.4992420421646113e-01 0 0 0
16 1 8.4102507109192413e+00 -1.4536425279650644e+00 2.9949391207367443e-01 0 0 0
57 1 9.8357207093728718e+00 -1.5967683345948924e-01 -1.0553406321232133e+00 0 0 0
58 1 1.1255595715311971e+01 1.2521359279281163e+00 1.8515986131136886e-01 0 0 0
24 1 1.3901887975719273e+01 -1.4118595498624018e+00 2.3617304123697236e-01 0 0 0
61 1 1.2523311206280404e+01 -1.5609967476971018e-01 1.6692517439525683e+00 0 0 0
66 1 1.6606428282811311e+01 1.3834523256898315e+00 1.9304535795280028e-01 0 0 0
1001 1 -9.4427413522452552e-01 -5.3927677583623677e+00 4.3875596480413064e+00 0 0 0
69 1 1.7819185507766953e+01 -9.7684406354359682e-02 1.4338326073043479e+00 0 0 0
32 1 1.9263132516824214e+01 -1.3511653283044418e+00 1.4445819063073162e-01 0 0 0
73 1 2.0651420711735081e+01 7.6100443888438892e-03 -1.1015471932060510e+00 0 0 0
77 1 2.3435765778782958e+01 7.8470399473350910e-02 1.6821330360985864e+00 0 0 0
40 1 2.4753476292261002e+01 -1.4241836340736618e+00 3.9819269220613279e-01 0 0 0
42 1 1.8901503083510793e-01 1.3750633559840011e+00 2.5530539699045485e-01 0 0 0
2029 1 1.7993212374703141e+01 -5.4752494629324531e+00 1.2485474511866732e+01 0 0 0
51 1 4.4170667695559356e+00 2.7008000887647547e+00 1.4710796478222772e+00 0 0 0
48 1 2.9873420179910526e+00 4.0746683886041604e+00 1.2911815978604643e-01 0 0 0
56 1 8.6172135879557850e+00 3.9785812156268929e+00 3.9899892545238330e-01 0 0 0
59 1 9.9268614361311656e+00 2.5455577896710841e+00 1.6753398348444419e+00 0 0 0
64 1 1.3832735413205597e+01 4.0934448009883200e+00 2.7423981991967489e-01 0 0 0
67 1 1.5225389315559619e+01 2.5774761829859587e+00 1.5599114343838312e+00 0 0 0
72 1 1.9359078343780453e+01 4.0070498978806564e+00 4.2215855295787386e-01 0 0 0
71 1 1.7999926410444345e+01 2.7919578478230687e+00 -1.0341786034909857e+00 0 0 0
74 1 2.1953881182283038e+01 1.3110303076958025e+00 3.8464185423436775e-01 0 0 0
75 1 2.0654579267630837e+01 2.6772489227911991e+00 1.7580991734888813e+00 0 0 0
79 1 2.3337971240398844e+01 2.5429623985229988e+00 -1.0435262851787528e+00 0 0 0
80 1 2.4671139392399983e+01 4.1029308352212350e+00 1.2007175259082573e-01 0 0 0
43 1 2.6029839386071231e+01 2.6614185317486960e+00 1.5665983357548323e+00 -1 0 0
82 1 2.8741132863375246e-01 6.8424414156471647e+00 4.1360714005110089e-01 0 0 0
85 1 1.5867709390277449e+00 5.4336856638768367e+00 1.6238724711653403e+00 0 0 0
37 1 2.3564653372852451e+01 -5.3755981188125475e+00 1.6602731080559308e+00 0 0 0
33 1 2.0766496422242767e+01 -5.4813185254080281e+00 -9.5274238896553676e-01 0 0 0
91 1 4.2666730899591157e+00 8.0860082657405297e+00 1.6841190377588811e+00 0 0 0
90 1 5.7116211987211880e+00 6.6814319517696132e+00 2.3779584445733984e-01 0 0 0
93 1 6.9974965953500314e+00 5.3319856276506687e+00 1.6700704678946297e+00 0 0 0
98 1 1.1110645077770158e+01 6.7685070345743652e+00 3.5284186361874531e-01 0 0 0
101 1 1.2556237585743116e+01 5.3867423654003481e+00 1.6947490933694362e+00 0 0 0
106 1 1.6546538342311198e+01 6.7794398575722097e+00 2.2423725624506563e-01 0 0 0
29 1 1.8028221760940248e+01 -5.3212163418858722e+00 1.6531455033039872e+00 0 0 0
109 1 1.7912356132245108e+01 5.4522206482373399e+00 1.6509423352178556e+00 0 0 0
114 1 2.1982611965296957e+01 6.6353246117164604e+00 2.3413079276860568e-01 0 0 0
115 1 2.0622621047696441e+01 8.1318028744848032e+00 1.5339642286356940e+00 0 0 0
25 1 1.5346756617830362e+01 -5.4354860568461447e+00 -9.7878235354416587e-01 0 0 0
117 1 2.3395147908941631e+01 5.3625205321700991e+00 1.6210550625859563e+00 0 0 0
81 1 2.6062945565665288e+01 5.6052931962476560e+00 -1.0570674386737056e+00 -1 0 0
125 1 1.5708180022920026e+00 1.0895108141270903e+01 1.5545833841298933e+00 0 0 0
88 1 3.0004446224475587e+00 9.5085391668201851e+00 2.7957742384422213e-01 0 0 0
13 1 7.2439258563485547e+00 -5.3828911594013107e+00 1.6163337838113530e+00 0 0 0
133 1 6.9649900241422458e+00 1.0665878349990928e+01 1.6835175007809970e+00 0 0 0
99 1 9.7269243844662601e+00 8.1415397892304568e+00 1.7562127943860513e+00 0 0 0
96 1 8.4309485891889846e+00 9.4995092576431510e+00 2.8302717440667258e-01 0 0 0
9 1 4.4559968024678724e+00 -5.4795015031293701e+00 -1.0296065012205367e+00 0 0 0
103 1 1.2373080980341303e+01 8.0617682067443308e+00 -1.0715716055255660e+00 0 0 0
104 1 1.3714852107519427e+01 9.4637849232341100e+00 1.5781013553210024e-01 0 0 0
141 1 1.2494020623900633e+01 1.0844312106457840e+01 1.6117279106380700e+00 0 0 0
107 1 1.5104903727619277e+01 8.1279195076345889e+00 1.4867402001031544e+00 0 0 0
5 1 1.5892077374491169e+00 -5.4254992761824781e+00 1.7136590660945217e+00 0 0 0
149 1 1.7748747772212770e+01 1.0875837370433695e+01 1.5260919612650723e+00 0 0 0
112 1 1.9230253841270969e+01 9.5296184345620993e+00 1.8651757292535481e-01 0 0 0
157 1 2.3245164557701099e+01 1.0925165150360044e+01 1.4801760001859721e+00 0 0 0
120 1 2.4723412026468665e+01 9.5364230036389763e+00 2.2920252100454702e-01 0 0 0
83 1 2.5955613931333598e+01 8.2087403786171755e+00 1.6249294253900481e+00 -1 0 0
2153 1 2.0741091181041497e+01 1.0953795705518077e+01 9.7457078213064676e+00 0 0 0
1007 1 1.5924965856224607e+00 -2.6381225247647291e+00 4.2421023743058468e+00 0 0 0
6 1 2.9248961461159579e+00 -4.0473755776037743e+00 2.9685161533541988e+00 0 0 0
1015 1 7.0194515920649865e+00 -2.7567976931864404e+00 4.2961898981558049e+00 0 0 0
1010 1 5.6645077417289995e+00 -3.9820183280660615e+00 5.8139408465220219e+00 0 0 0
14 1 8.5373667483603963e+00 -4.0598407905169669e+00 3.0577160532674168e+00 0 0 0
2121 1 2.6083672147609036e+01 1.0728171987292829e+01 9.7860935938217466e+00 -1 0 0
1018 1 1.1190344203873790e+01 -4.1441934364564830e+00 5.6859064405129658e+00 0 0 0
22 1 1.3848566772413017e+01 -4.1759278985805075e+00 3.0481970552021727e+00 0 0 0
1023 1 1.2666312061217424e+01 -2.8500661496495714e+00 4.4409865437817597e+00 0 0 0
1031 1 1.7883538414925617e+01 -2.7907788322307456e+00 4.2762430316383435e+00 0 0 0
30 1 1.9353432374491781e+01 -4.0294762643096709e+00 2.9904653450558665e+00 0 0 0
1033 1 2.0770144622591083e+01 -5.3133801435724228e+00 4.3999803524494032e+00 0 0 0
38 1 2.4921617660494817e+01 -3.9715409774617321e+00 3.1091968028336892e+00 0 0 0
1039 1 2.3429290073869627e+01 -2.5495564078199187e+00 4.3996368444633545e+00 0 0 0
4 1 2.0317266363838971e-01 -1.2422282804362252e+00 3.1072621608218851e+00 0 0 0
1042 1 3.0414218821167777e-01 1.5917421685891993e+00 5.8795191057005320e+00 0 0 0
1049 1 4.2768228392380427e+00 5.1827785028882259e-02 4.4014634656132685e+00 0 0 0
1008 1 2.9380021944375176e+00 -1.3834459385967282e+00 5.7634045920203842e+00 0 0 0
12 1 5.6131649907312671e+00 -1.3901207763890460e+00 2.9956238244586091e+00 0 0 0
54 1 8.4798594769189375e+00 1.3684013171238172e+00 3.0556947604897253e+00 0 0 0
1057 1 9.8254046747175199e+00 -1.3664023644486986e-01 4.3577989059025839e+00 0 0 0
1016 1 8.3398376113477468e+00 -1.3082542202936671e+00 5.6331335849785056e+00 0 0 0
20 1 1.1205854272499606e+01 -1.4622018387574331e+00 3.1112389429895924e+00 0 0 0
1058 1 1.1153260532698901e+01 1.4465555202649614e+00 5.7133147491793785e+00 0 0 0
1024 1 1.3896377267801162e+01 -1.3543916616222855e+00 5.6714681769913833e+00 0 0 0
1065 1 1.5279386242295647e+01 2.3108923981231780e-02 4.2528450467595169e+00 0 0 0
28 1 1.6441402202729588e+01 -1.3869504022556327e+00 2.8570104568074428e+00 0 0 0
1073 1 2.0528571101522552e+01 1.0485101093570420e-01 4.3248997501289486e+00 0 0 0
36 1 2.1952459146949650e+01 -1.2119630440028120e+00 3.0600708237231742e+00 0 0 0
1041 1 -1.0695749516516635e+00 8.8857731614472954e-02 4.3942432526839941e+00 0 0 0
78 1 2.4761251860242680e+01 1.3236113633955897e+00 3.1345569341867834e+00 0 0 0
44 1 2.2640366710279075e-01 4.0362092000959349e+00 3.0473490905934821e+00 0 0 0
1047 1 1.5767074798927805e+00 2.8001525661336726e+00 4.3514789468604755e+00 0 0 0
46 1 3.0789374677888879e+00 1.3830496061636599e+00 2.9373939122646346e+00 0 0 0
1048 1 3.0601585593747576e+00 4.0611872535060733e+00 5.6566929026017991e+00 0 0 0
52 1 5.7688782931891156e+00 3.8749075127563661e+00 3.0507508254260389e+00 0 0 0
1055 1 7.1615140666210069e+00 2.6035976105137948e+00 4.4484945219648653e+00 0 0 0
1056 1 8.4596309687174482e+00 4.1264608761085260e+00 5.7769557849391102e+00 0 0 0
60 1 1.1148831281416406e+01 4.0650339779166762e+00 3.0262679096112515e+00 0 0 0
62 1 1.3871984832037731e+01 1.3032815486682299e+00 2.8875304166948474e+00 0 0 0
1063 1 1.2603493779863062e+01 2.7177168506214575e+00 4.2328476638839003e+00 0 0 0
68 1 1.6639924695719991e+01 4.0338179125926281e+00 2.8627211110270765e+00 0 0 0
1071 1 1.7925648738760842e+01 2.8309342209516046e+00 4.3487163592236939e+00 0 0 0
70 1 1.9137433275181593e+01 1.2750569428635330e+00 2.9641128790021489e+00 0 0 0
76 1 2.2045073669320171e+01 4.0419900865761704e+00 3.0566172986575459e+00 0 0 0
1079 1 2.3443163164261435e+01 2.6808283435067222e+00 4.5011758520414853e+00 0 0 0
1087 1 1.5643220931021000e+00 8.0498684090862618e+00 4.3658003765548505e+00 0 0 0
1089 1 4.4655017253132847e+00 5.3292348669668348e+00 4.2596880176258924e+00 0 0 0
86 1 3.0152948440160947e+00 6.7165892929119888e+00 3.0023357266230244e+00 0 0 0
94 1 8.2838372906073374e+00 6.8437344033189662e+00 2.9704414236010637e+00 0 0 0
1097 1 9.7965794918465345e+00 5.4436083586044735e+00 4.3223087046272433e+00 0 0 0
1103 1 1.2556304236288337e+01 8.1067040657789118e+00 4.2168221199831386e+00 0 0 0
102 1 1.4016559520200804e+01 6.7146538193347132e+00 2.9782336799853173e+00 0 0 0
1105 1 1.5282170014839719e+01 5.3385466208104297e+00 4.2785030327008267e+00 0 0 0
110 1 1.9261573904669181e+01 6.8177874980939182e+00 2.9783564213338791e+00 0 0 0
1113 1 2.0623392859198379e+01 5.3643041926455854e+00 4.4259596578536078e+00 0 0 0
118 1 2.4660845924282302e+01 6.7278132498027396e+00 2.9608257487081593e+00 0 0 0
1119 1 2.3193823581290587e+01 8.0561990691502441e+00 4.3047401845137871e+00 0 0 0
1081 1 2.6068198636996485e+01 5.2531855698328247e+00 4.3690901154847941e+00 -1 0 0
84 1 2.5554076381602714e-01 9.5405546156044849e+00 3.0605928468415233e+00 0 0 0
1129 1 4.3210452860649244e+00 1.0784319496222105e+01 4.3406398873869829e+00 0 0 0
1095 1 6.9020050407159772e+00 8.0857222236949156e+00 4.4386275521952303e+00 0 0 0
92 1 5.5604305198496080e+00 9.3778803625836762e+00 3.0134984690822759e+00 0 0 0
1137 1 9.6326337291214408e+00 1.0700186208385173e+01 4.4376732473304283e+00 0 0 0
100 1 1.1213999711973292e+01 9.4744939661406402e+00 3.0801914557831291e+00 0 0 0
1145 1 1.5126588807918576e+01 1.0715015182617378e+01 4.4661750609776449e+00 0 0 0
108 1 1.6480149146889435e+01 9.3225541575671453e+00 2.9701831539371373e+00 0 0 0
1111 1 1.7900751727356791e+01 8.1283313081083826e+00 4.4407764452029790e+00 0 0 0
1153 1 2.0578994217653630e+01 1.0898962589811914e+01 4.3500093989796902e+00 0 0 0
116 1 2.1878224191856333e+01 9.4483705355337690e+00 2.8486692544066088e+00 0 0 0
1120 1 2.4573892914949120e+01 9.3110443072916098e+00 5.5892746264220667e+00 0 0 0
1121 1 2.5947879899038828e+01 1.0722818353656523e+01 4.4563340451753977e+00 -1 0 0
1002 1 3.8580328787629309e-01 -4.0345475709232268e+00 5.7161299467524174e+00 0 0 0
1011 1 4.3701303737045736e+00 -2.7190763322017935e+00 7.1406212993737803e+00 0 0 0
1006 1 2.9440408976549226e+00 -4.1050403284697730e+00 8.4552469334824654e+00 0 0 0
1013 1 7.1405380205995534e+00 -5.4442218353282579e+00 7.0598309072403556e+00 0 0 0
1019 1 9.6862110062621607e+00 -2.7669368113625104e+00 6.9721840774795680e+00 0 0 0
1014 1 8.4063506809886839e+00 -4.0594214828796318e+00 8.3906353023017157e+00 0 0 0
1021 1 1.2505161529214467e+01 -5.4998305301531447e+00 7.0664363372041761e+00 0 0 0
1022 1 1.3977397181443980e+01 -4.1904534718598736e+00 8.3474857204943955e+00 0 0 0
1027 1 1.5169339225585116e+01 -2.7916720119002951e+00 7.1781260268575648e+00 0 0 0
1026 1 1.6473842744875267e+01 -4.1887626469688595e+00 5.8350086236885508e+00 0 0 0
1030 1 1.9447168676026340e+01 -4.0933564924317993e+00 8.4303406725413286e+00 0 0 0
1034 1 2.2179855527130780e+01 -3.9583406237959284e+00 5.8132511833430618e+00 0 0 0
1035 1 2.0679779689829722e+01 -2.6513404090007002e+00 6.9031597080480713e+00 0 0 0
1038 1 2.4885575320524143e+01 -4.1385246988635762e+00 8.4510261319641558e+00 0 0 0
1003 1 -1.0139976716071608e+00 -2.6522090092854547e+00 7.0471126989192650e+00 0 0 0
1045 1 1.6763468053759059e+00 6.5751208080992454e-02 7.1139712768884440e+00 0 0 0
1004 1 4.2485828885106675e-01 -1.3535238422790887e+00 8.4410508738543939e+00 0 0 0
1053 1 7.0308509854285752e+00 -4.0061638024965235e-02 7.0862099144578821e+00 0 0 0
1012 1 5.8321847932173290e+00 -1.4900707496219086e+00 8.6000455299873977e+00 0 0 0
1020 1 1.1149304668654066e+01 -1.5297598076145944e+00 8.4142332652332588e+00 0 0 0
1061 1 1.2360770030907618e+01 -1.1681766446101983e-02 7.2152409393528059e+00 0 0 0
1028 1 1.6601476573688085e+01 -1.3584432765768970e+00 8.3354105989625360e+00 0 0 0
1069 1 1.7978916086280485e+01 -2.5278989912434560e-02 6.9585691403313312e+00 0 0 0
1032 1 1.9235509481009281e+01 -1.2930504723672780e+00 5.6344887403013644e+00 0 0 0
1074 1 2.1908792358623813e+01 1.4021000112998840e+00 5.7022899017781103e+00 0 0 0
1036 1 2.2066023400951703e+01 -1.2655211819879497e+00 8.3486340749576406e+00 0 0 0
1077 1 2.3347966862743508e+01 1.3193700144784931e-01 7.0127960407510876e+00 0 0 0
1040 1 2.4780543634266234e+01 -1.2716279904853864e+00 5.7345096405538252e+00 0 0 0
1044 1 4.1062953225553861e-01 4.1904467964211909e+00 8.4923090360077698e+00 0 0 0
1051 1 4.4522033232778782e+00 2.6399109540957526e+00 7.1088528034984915e+00 0 0 0
1046 1 3.0551673040535254e+00 1.3432502110740159e+00 8.4183968226656312e+00 0 0 0
1050 1 5.7519436261500774e+00 1.3043597739012081e+00 5.6862681650798024e+00 0 0 0
1052 1 5.6452725872758478e+00 4.1907448293175582e+00 8.4160462536494567e+00 0 0 0
1059 1 9.8167155733973797e+00 2.7309110497147726e+00 7.0105282226315548e+00 0 0 0
1054 1 8.4054095778276849e+00 1.2933342398295888e+00 8.4058278139773392e+00 0 0 0
1060 1 1.1237421340828488e+01 3.8706946714221315e+00 8.4280078799045572e+00 0 0 0
1064 1 1.3960601638105041e+01 4.0976594022790600e+00 5.6213345564089385e+00 0 0 0
1062 1 1.3863029234116976e+01 1.2619681299935495e+00 8.3582280520439234e+00 0 0 0
1066 1 1.6568413079491382e+01 1.4281075997178747e+00 5.6379723848645620e+00 0 0 0
1067 1 1.5168336896565124e+01 2.6892448214798641e+00 7.1263011769132270e+00 0 0 0
1068 1 1.6574773691446119e+01 4.0747360608007117e+00 8.3975478533659746e+00 0 0 0
1072 1 1.9228520805590364e+01 4.0512000018864898e+00 5.7664220902681818e+00 0 0 0
1070 1 1.9263389980281925e+01 1.3572640357664290e+00 8.4689962208387417e+00 0 0 0
1075 1 2.0537993512154923e+01 2.7530337431311649e+00 7.1873588080646869e+00 0 0 0
1076 1 2.2051476881847979e+01 4.0711824413955444e+00 8.5323832051366093e+00 0 0 0
1080 1 2.4687063510264128e+01 4.0730431442461166e+00 5.8670779585336792e+00 0 0 0
1078 1 2.4744726655239052e+01 1.4432250227500536e+00 8.4852969992450671e+00 0 0 0
1043 1 -1.0415471341450591e+00 2.8926581244459921e+00 7.2430544411690354e+00 0 0 0
1082 1 2.7116219921732532e-01 6.7414905172590824e+00 5.6710397131818331e+00 0 0 0
1085 1 1.7418649525682097e+00 5.4613996157734439e+00 7.0806585702519094e+00 0 0 0
1091 1 4.2453601946555661e+00 8.0851733291898107e+00 7.0807046177371609e+00 0 0 0
1086 1 2.9805466069539337e+00 6.8417880057218081e+00 8.5227741300955682e+00 0 0 0
1090 1 5.6666985143056827e+00 6.7422566659366767e+00 5.7602467337964383e+00 0 0 0
1093 1 6.9452580024499415e+00 5.4433512132541857e+00 7.0034391100433391e+00 0 0 0
1099 1 9.8311605232403299e+00 8.0682510170424226e+00 7.0249180886964346e+00 0 0 0
1094 1 8.4634502924771553e+00 6.6524058595478746e+00 8.4047958890007823e+00 0 0 0
1098 1 1.1131926315283515e+01 6.7348289912853518e+00 5.5769594607413557e+00 0 0 0
1101 1 1.2487822878425195e+01 5.3110607829425422e+00 6.9419796013569419e+00 0 0 0
1102 1 1.3991167231252767e+01 6.4347072487328534e+00 8.3845653670198388e+00 0 0 0
1106 1 1.6546239241135865e+01 6.6875336804967764e+00 5.6769100175026779e+00 0 0 0
1109 1 1.8001363588896119e+01 5.5752261852918927e+00 7.0903441314745743e+00 0 0 0
1110 1 1.9401190793313678e+01 6.8017725915379827e+00 8.5723662023049005e+00 0 0 0
1114 1 2.1922088904444927e+01 6.7077784471575645e+00 5.8736205460166877e+00 0 0 0
1117 1 2.3312438751161405e+01 5.4269398537662035e+00 7.1848797454328075e+00 0 0 0
1118 1 2.4693214131196033e+01 6.7567131348166241e+00 8.3920645273816703e+00 0 0 0
1083 1 -1.0968298598311179e+00 8.1162917692662528e+00 6.8621989841342144e+00 0 0 0
1125 1 1.6680353228802101e+00 1.0907162471524705e+01 7.0052732188152023e+00 0 0 0
1084 1 2.5017577542679664e-01 9.4786951738267451e+00 8.4055190038675764e+00 0 0 0
1088 1 2.9387807389909790e+00 9.4196418046861865e+00 5.7009776004083426e+00 0 0 0
1133 1 7.0788210996038723e+00 1.0832974477189991e+01 7.0047779181272301e+00 0 0 0
1092 1 5.6475209914389302e+00 9.4197741131197414e+00 8.4863257462101664e+00 0 0 0
1096 1 8.3132138047788899e+00 9.3217707155846199e+00 5.7558252034011907e+00 0 0 0
1141 1 1.2407390355132723e+01 1.0662673354827698e+01 7.2058584529116692e+00 0 0 0
1100 1 1.1110411378722334e+01 9.3909362931245184e+00 8.4444193254405580e+00 0 0 0
1104 1 1.3683833043702867e+01 9.2588203689952646e+00 5.8749855329487257e+00 0 0 0
1107 1 1.5211460381284013e+01 7.9376386912828609e+00 7.0162426582002313e+00 0 0 0
1108 1 1.6383734682548340e+01 9.3699914590711000e+00 8.5048793440876445e+00 0 0 0
1149 1 1.7784476802110671e+01 1.0743474039100679e+01 7.2365828180989222e+00 0 0 0
1112 1 1.9233528603446466e+01 9.4920166050210160e+00 5.8012931002326145e+00 0 0 0
1115 1 2.0694934755076545e+01 8.1835516824062466e+00 7.1397430186604689e+00 0 0 0
1116 1 2.1999631439173235e+01 9.5813833535604100e+00 8.4835897308587693e+00 0 0 0
1157 1 2.3260919968213994e+01 1.0720740870247370e+01 7.0427899448424274e+00 0 0 0
2007 1 1.6377808821727904e+00 -2.8094784429645969e+00 9.7831733538036829e+00 0 0 0
2002 1 2.9406858989704465e-01 -4.1654837234113256e+00 1.1172617947576210e+01 0 0 0
2120 1 2.4756838187617898e+01 9.5392561390632746e+00 1.1158451677143258e+01 0 0 0
2003 1 -1.0166600907348298e+00 -2.7698185790454115e+00 1.2433580840343156e+01 0 0 0
2011 1 4.3084676570423479e+00 -2.7295433476227706e+00 1.2385080508344728e+01 0 0 0
2015 1 7.1494786159616508e+00 -2.8940910194992537e+00 9.9261738162326978e+00 0 0 0
2010 1 5.6662039746778552e+00 -4.2075097451633692e+00 1.1160276093893424e+01 0 0 0
2017 1 9.7398000672399583e+00 -5.4701262964696964e+00 9.5803984284757693e+00 0 0 0
2023 1 1.2585738459242943e+01 -2.8108092872126065e+00 9.7580700268083458e+00 0 0 0
2018 1 1.1151711567142584e+01 -4.2483837981975618e+00 1.1158099407411639e+01 0 0 0
2025 1 1.5333007770550021e+01 -5.4265414059393011e+00 9.6567540568226882e+00 0 0 0
2026 1 1.6677495379487226e+01 -4.1540384749887727e+00 1.1126946831310747e+01 0 0 0
2031 1 1.8020395436148558e+01 -2.7823719924151247e+00 9.7350971837136573e+00 0 0 0
2034 1 2.2193342351199252e+01 -4.1991938553264800e+00 1.1187776121098990e+01 0 0 0
2039 1 2.3365599690172214e+01 -2.7360721278414588e+00 9.7177439178664322e+00 0 0 0
2042 1 3.4114935854931727e-01 1.3847096396289840e+00 1.1231920190681251e+01 0 0 0
2041 1 -9.8718932119435354e-01 4.0574408387448843e-02 9.7304399723434685e+00 0 0 0
2049 1 4.5019573593090385e+00 -5.0584042310673821e-03 9.8683419512878405e+00 0 0 0
2008 1 3.0073603107909723e+00 -1.4734512034330740e+00 1.1053754423776679e+01 0 0 0
2057 1 9.8679321029999745e+00 -3.7497795027478693e-02 9.5978853059459759e+00 0 0 0
2016 1 8.3796281073697649e+00 -1.2375302481186072e+00 1.1079511872809881e+01 0 0 0
2024 1 1.3910350189824630e+01 -1.3652792372233769e+00 1.1163453525856964e+01 0 0 0
2065 1 1.5270345933099527e+01 -5.0148280965144981e-02 9.7328143811747996e+00 0 0 0
2066 1 1.6541786504984685e+01 1.3895072771216224e+00 1.1098189430254596e+01 0 0 0
2032 1 1.9450514362486420e+01 -1.5286456530835810e+00 1.1145796186270061e+01 0 0 0
2073 1 2.0727562715042797e+01 -4.4877579997553612e-03 9.8205590779936713e+00 0 0 0
2040 1 2.4806794504152890e+01 -1.3919140116567867e+00 1.1088639825715429e+01 0 0 0
2047 1 1.7425377969808205e+00 2.6799904175663429e+00 9.8107312259386692e+00 0 0 0
2043 1 -1.0286772844643806e+00 2.6940277775722303e+00 1.2452497604580234e+01 0 0 0
2048 1 3.0097877497849677e+00 3.9842556226443526e+00 1.1219737723589855e+01 0 0 0
2055 1 6.9537329012865472e+00 2.7438742823459759e+00 9.6124925562013068e+00 0 0 0
2050 1 5.7699534293171988e+00 1.4355057172866323e+00 1.1090070947632020e+01 0 0 0
2056 1 8.4475622544877726e+00 4.0115649304552479e+00 1.1136866938652304e+01 0 0 0
2112 1 1.9421105961397334e+01 9.5046275475083242e+00 1.1051145064203720e+01 0 0 0
2058 1 1.1115663097082868e+01 1.2938980914514882e+00 1.1089097420847004e+01 0 0 0
2064 1 1.3998762769151412e+01 3.9550269867476455e+00 1.1212684778857930e+01 0 0 0
2063 1 1.2651591007214313e+01 2.5699396133936641e+00 9.8346234213422470e+00 0 0 0
2071 1 1.7871642068494690e+01 2.7699756385358349e+00 9.8498381901003196e+00 0 0 0
2072 1 1.9371121174996155e+01 4.0120400409618764e+00 1.1218663151384595e+01 0 0 0
2074 1 2.2164353294091985e+01 1.3825327998200168e+00 1.1171121610644040e+01 0 0 0
2079 1 2.3490814229204457e+01 2.8183173220479323e+00 9.9068365947350898e+00 0 0 0
2080 1 2.4902632617802265e+01 4.1511588768179655e+00 1.1175385881535107e+01 0 0 0
2082 1 3.6344215282769637e-01 6.8551991075583194e+00 1.1147751752038566e+01 0 0 0
2081 1 -9.8762287869574283e-01 5.6023926749023598e+00 9.8082525152839732e+00 0 0 0
2089 1 4.2286552148432008e+00 5.4360671489685428e+00 9.9221254335604900e+00 0 0 0
2090 1 5.6632508447889283e+00 6.7871305536356701e+00 1.1071394228440921e+01 0 0 0
2097 1 9.8344635740378834e+00 5.3168532662680335e+00 9.7377547529054631e+00 0 0 0
2098 1 1.1282195267600585e+01 6.7145580437557237e+00 1.1081977931736345e+01 0 0 0
2105 1 1.5330892317858218e+01 5.2426663467374359e+00 9.8117237437354312e+00 0 0 0
2106 1 1.6441342761278850e+01 6.7877415355692161e+00 1.1166569950769457e+01 0 0 0
2111 1 1.7876321629613077e+01 8.1581094133699903e+00 9.8310572231053861e+00 0 0 0
2113 1 2.0821549094850809e+01 5.4047615470081798e+00 9.8925097762634415e+00 0 0 0
2114 1 2.2044056962103092e+01 6.9019407182071832e+00 1.1279010386452267e+01 0 0 0
2119 1 2.3414259273425056e+01 8.1873156307411978e+00 9.7437045870213890e+00 0 0 0
2145 1 1.5081175551046835e+01 1.0928341413838412e+01 9.7555644912092667e+00 0 0 0
2087 1 1.6477417602175637e+00 8.2246171049871695e+00 9.9304660391927460e+00 0 0 0
2129 1 4.2175324774109750e+00 1.0763852991196835e+01 9.8026380423722443e+00 0 0 0
2088 1 2.8680639026696304e+00 9.5451327817380189e+00 1.1311468377055411e+01 0 0 0
2095 1 7.1266238648019069e+00 8.0300095140809713e+00 9.6748132702631580e+00 0 0 0
2137 1 9.7862072516638570e+00 1.0872258658835966e+01 9.7569145467460654e+00 0 0 0
2096 1 8.5312591139633884e+00 9.4148001639285948e+00 1.1113709889168021e+01 0 0 0
2103 1 1.2728892265307012e+01 7.9866714744220140e+00 9.7129645719992617e+00 0 0 0
2104 1 1.3810779352343507e+01 9.5251472393020435e+00 1.1117103146821847e+01 0 0 0
2019 1 9.8360047867992026e+00 -2.5786304618567497e+00 1.2425920643147146e+01 0 0 0
2027 1 1.5321573906067442e+01 -2.6741412449368580e+00 1.2411753161753902e+01 0 0 0
2045 1 1.6720094382470152e+00 -8.0290571144867262e-02 1.2471866755991831e+01 0 0 0
2053 1 7.0757418898301339e+00 -6.1333816529354553e-02 1.2487542313829639e+01 0 0 0
2069 1 1.7984526726241359e+01 -4.1927583614678098e-02 1.2439494002186265e+01 0 0 0
2051 1 4.3331903726688088e+00 2.7399419932168749e+00 1.2449657494946408e+01 0 0 0
2085 1 1.6588696262548481e+00 5.4535852601406658e+00 1.2356605306674453e+01 0 0 0
2093 1 7.0900173134085351e+00 5.5272995960036395e+00 1.2398799696682763e+01 0 0 0
2099 1 9.8685720028680439e+00 8.0219874329566725e+00 1.2430198110072908e+01 0 0 0
2109 1 1.7832207782298717e+01 5.3155631652380091e+00 1.2433700923113111e+01 0 0 0
2133 1 7.0539476803847148e+00 1.0758738196319355e+01 1.2452566783176071e+01 0 0 0
2149 1 1.7911468213273661e+01 1.0806934460841131e+01 1.2444037842329944e+01 0 0 0
2083 1 2.6066890370749345e+01 8.0615309237932102e+00 1.2460565999209951e+01 -1 0 0
119 1 2.3335440834090257e+01 8.0473208765144193e+00 -1.0668444881343966e+00 0 0 0
2157 1 2.3283734241954374e+01 1.0862107206236287e+01 1.2492950294951848e+01 0 0 0
55 1 7.1907122592777277e+00 2.6679528639995453e+00 -1.0803945698843620e+00 0 0 0
63 1 1.2561462457541021e+01 2.6421621563680926e+00 -1.0558387519626393e+00 0 0 0
95 1 7.0519830114371667e+00 7.9935227103335214e+00 -1.0741960311861689e+00 0 0 0
97 1 9.9489236587798615e+00 5.3589127521281181e+00 -1.0838676771133784e+00 0 0 0
3007 1 1.6445615467201806e+00 -2.7222763054215875e+00 1.5264994961604906e+01 0 0 0
3001 1 -1.0508282877989572e+00 -5.3632759246776276e+00 1.5198403518959005e+01 0 0 0
2006 1 2.8740958305860831e+00 -4.0626926318517658e+00 1.3700990015649669e+01 0 0 0
3015 1 7.1133941312208835e+00 -2.7150954641005525e+00 1.5136146326687280e+01 0 0 0
2014 1 8.6341998652312775e+00 -3.9965454346474250e+00 1.3903794188492576e+01 0 0 0
4029 1 1.7970262548261164e+01 -5.3116415816541007e+00 2.3266275625999043e+01 0 0 0
4157 1 2.3408830562610085e+01 1.0740520481715349e+01 2.3246545585814573e+01 0 0 0
2022 1 1.3835340862035862e+01 -4.0682708841712660e+00 1.3759657677497522e+01 0 0 0
3023 1 1.2505369044710168e+01 -2.8150548716606769e+00 1.5192934621095093e+01 0 0 0
3037 1 2.3461807335186684e+01 -5.4052281787459435e+00 1.8060265738246141e+01 0 0 0
2030 1 1.9468612667990467e+01 -4.1489229132952206e+00 1.3963450210111574e+01 0 0 0
3031 1 1.7844619401437868e+01 -2.7046875480022803e+00 1.5272189827281306e+01 0 0 0
2035 1 2.0839803202593448e+01 -2.7973541897411622e+00 1.2525684160580981e+01 0 0 0
153 1 2.0666542433211816e+01 1.0906873828343677e+01 2.6050687128359801e+01 0 0 -1
2038 1 2.4749329015929202e+01 -4.0012431194190619e+00 1.3809278439777401e+01 0 0 0
3039 1 2.3353218097195775e+01 -2.7840696189072021e+00 1.5246007487234923e+01 0 0 0
3029 1 1.7892816559113349e+01 -5.4230245062323661e+00 1.7984549617619557e+01 0 0 0
2004 1 3.1461907703677333e-01 -1.3233770471669217e+00 1.3872935891221337e+01 0 0 0
3041 1 2.6077159316086245e+01 -6.2000746801839438e-02 1.5300427395333291e+01 -1 0 0
2046 1 3.0627342470994301e+00 1.2944375656433666e+00 1.3846286634413273e+01 0 0 0
3049 1 4.3329962132433186e+00 -1.2673073840197263e-01 1.5232060012619332e+01 0 0 0
2012 1 5.6228513961609234e+00 -1.4477197444423429e+00 1.3898026166630865e+01 0 0 0
3005 1 1.5214820853977480e+00 -5.4926713630975996e+00 1.7947603329239040e+01 0 0 0
2054 1 8.4503007937680099e+00 1.3403273226476147e+00 1.3887461996960484e+01 0 0 0
3057 1 9.7825220638802683e+00 -1.8370767143181962e-02 1.5210818593501388e+01 0 0 0
2020 1 1.1150035057380622e+01 -1.3722977755498380e+00 1.3786658565814736e+01 0 0 0
2062 1 1.3896701548108332e+01 1.2096073060447050e+00 1.3994136547304494e+01 0 0 0
2061 1 1.2530713546926320e+01 9.5284620024142147e-02 1.2516862818978115e+01 0 0 0
2028 1 1.6656142547337598e+01 -1.3530216005678968e+00 1.3950409530013626e+01 0 0 0
3065 1 1.5250272590541348e+01 -6.1369889281199255e-02 1.5278982774836532e+01 0 0 0
4141 1 1.2361208873492119e+01 1.0815577240645716e+01 2.3453624358263436e+01 0 0 0
2070 1 1.9318825544735386e+01 1.3546438156155256e+00 1.3945522505973910e+01 0 0 0
2036 1 2.2037843000688792e+01 -1.3811548180808855e+00 1.3872133508962282e+01 0 0 0
3073 1 2.0646940484205928e+01 -9.5754164102474816e-03 1.5241364808393559e+01 0 0 0
2077 1 2.3400182004264423e+01 -2.1944824073625836e-02 1.2516691330917780e+01 0 0 0
2044 1 2.4583608104231580e-01 3.9948148054636672e+00 1.3759660385400121e+01 0 0 0
3047 1 1.7124051481851235e+00 2.6944465785340856e+00 1.5138957724729119e+01 0 0 0
4100 1 1.1031116444634499e+01 9.3102220282012098e+00 2.4756112276397388e+01 0 0 0
2052 1 5.6259729172337014e+00 4.1467648738631402e+00 1.3689371460355984e+01 0 0 0
3055 1 6.9328129436076971e+00 2.8271893412971378e+00 1.5034804088817232e+01 0 0 0
2060 1 1.1134069536612049e+01 4.0650995711545237e+00 1.3875223698075111e+01 0 0 0
3063 1 1.2502386368713317e+01 2.6434280809458595e+00 1.5207090760529404e+01 0 0 0