LAMMPS data file via write_data, version 30 Jul 2016, timestep = 50000

5000 atoms
1 atom types

-1.1037168688014471e+00 2.6103716868801385e+01 xlo xhi
-5.5185843440072304e+00 1.3051858434400725e+02 ylo yhi
-1.1037168688014471e+00 2.6103716868801385e+01 zlo zhi

Masses

1 28.0855

Atoms # atomic

2 1 2.9110778790151703e-01 -4.1415693588934754e+00 3.8985747553307132e-01 0 0 0
3 1 -1.0596009338867234e+00 -2.6305686711890974e+00 1.7468006612505516e+00 0 0 0
7 1 1.6521111750211768e+00 -2.8917116351651693e+00 -1.0941662999560891e+00 0 0 0
11 1 4.2940884128526298e+00 -2.6458278601453320e+00 1.6619818624425589e+00 0 0 0
10 1 5.8113332427028279e+00 -3.9312418136334482e+00 2.7431677788634690e-01 0 0 0
2013 1 7.1749946823720947e+00 -5.4846612838362319e+00 1.2463548859647792e+01 0 0 0
19 1 9.7269181275113130e+00 -2.6664672519978372e+00 1.6420976086474941e+00 0 0 0
2009 1 4.4713988188143343e+00 -5.4349866222088110e+00 9.8293783760335476e+00 0 0 0
18 1 1.1135233902357484e+01 -4.1502038710978972e+00 4.0122204456913640e-01 0 0 0
23 1 1.2554168783675379e+01 -2.8525181952933432e+00 -9.6619247939026054e-01 0 0 0
27 1 1.5138193052821032e+01 -2.7605463882838293e+00 1.5986627188600955e+00 0 0 0
26 1 1.6797242321656636e+01 -4.0172774478417699e+00 2.4719308148267460e-01 0 0 0
1037 1 2.3481146942952499e+01 -5.5069451037650197e+00 7.0135934857384017e+00 0 0 0
34 1 2.2131149255028941e+01 -3.9130518894761521e+00 3.3243386189862595e-01 0 0 0
35 1 2.0733958921453038e+01 -2.6128754642042491e+00 1.6870457126893599e+00 0 0 0
39 1 2.3469311290801421e+01 -2.8121318257729051e+00 -1.0728998303497064e+00 0 0 0
41 1 -1.0590451509882191e+00 -9.4382617503049646e-02 -1.0228002938077090e+00 0 0 0
45 1 1.5155965441041745e+00 2.6453407060547114e-02 1.6465894257306104e+00 0 0 0
1029 1 1.7959022775109307e+01 -5.5057273092306502e+00 7.0815489966485599e+00 0 0 0
8 1 2.9784989269328856e+00 -1.2850943942743727e+00 2.0323575976947247e-01 0 0 0
53 1 7.0304978242293936e+00 1.8468826590538331e-02 1.7824150491274029e+00 0 0 0
50 1 5.7592382969588840e+00 1.2855734370145870e+00 1.5478706692442615e-01 0 0 0
16 1 8.4009104072324217e+00 -1.2866836637722894e+00 3.0160228873840639e-01 0 0 0
1005 1 1.7342826177096886e+00 -5.4198283830528169e+00 7.1984965196718438e+00 0 0 0
58 1 1.1268628129758536e+01 1.2539526118591253e+00 1.6294007186147985e-01 0 0 0
24 1 1.3934066692695691e+01 -1.4718411203543376e+00 1.8582823648292135e-01 0 0 0
61 1 1.2574713528326109e+01 -1.9074943702111113e-01 1.5933539293970074e+00 0 0 0
66 1 1.6598283079721540e+01 1.3555375235808536e+00 2.3752167856097942e-01 0 0 0
1001 1 -9.3294674902667751e-01 -5.4693284478565261e+00 4.4513434703893102e+00 0 0 0
69 1 1.7835338834149653e+01 -5.6478174090622987e-02 1.5289351424614543e+00 0 0 0
32 1 1.9391569104850003e+01 -1.4109598973985318e+00 2.7095343437983066e-01 0 0 0
73 1 2.0752296686912153e+01 7.5321968622808419e-02 -1.0323546524355083e+00 0 0 0
77 1 2.3323214688827747e+01 3.7091823084879696e-02 1.6478258472445564e+00 0 0 0
40 1 2.4665540589747270e+01 -1.3977722928487708e+00 3.0402814632835551e-01 0 0 0
42 1 2.3364570859908970e-01 1.3256357034660537e+00 2.9711899325608671e-01 0 0 0
47 1 1.5378426420513287e+00 2.7166235913626022e+00 -1.0952767330306266e+00 0 0 0
51 1 4.4498389314174434e+00 2.6895330424899595e+00 1.5271283207740434e+00 0 0 0
48 1 3.0016564679226354e+00 4.0944588224901812e+00 2.7952779729758209e-01 0 0 0
56 1 8.6822572118078529e+00 3.9652420168269922e+00 3.3346409143612293e-01 0 0 0
59 1 9.9894502817010142e+00 2.5249161165392828e+00 1.7445414470406471e+00 0 0 0
64 1 1.3800780795584316e+01 3.9474325033224864e+00 1.4885948034841906e-01 0 0 0
67 1 1.5156269454312548e+01 2.6210264563753460e+00 1.5889715555038000e+00 0 0 0
72 1 1.9336239830837332e+01 4.0679488629935863e+00 3.7103319157861253e-01 0 0 0
37 1 2.3648985601269533e+01 -5.3962648579872337e+00 1.6543400270510118e+00 0 0 0
74 1 2.1882566499636727e+01 1.4584894285157641e+00 3.9413318751475085e-01 0 0 0
75 1 2.0559612526356126e+01 2.6442607562828728e+00 1.8029230129008724e+00 0 0 0
29 1 1.8044287425761944e+01 -5.4386478767759741e+00 1.7076000062685026e+00 0 0 0
80 1 2.4688425792299775e+01 4.0220828435940641e+00 1.9096860507044178e-01 0 0 0
43 1 2.6089144782953451e+01 2.6786744028011227e+00 1.6590162097680867e+00 -1 0 0
82 1 3.1382436672091379e-01 6.8566722074258246e+00 2.4365670783202475e-01 0 0 0
85 1 1.5434048988102778e+00 5.4100767497345901e+00 1.5989322217996536e+00 0 0 0
25 1 1.5366950777332816e+01 -5.3504992851865438e+00 -1.0513379380523615e+00 0 0 0
2033 1 2.0902106973499329e+01 -5.4602977652886011e+00 9.8056004122460969e+00 0 0 0
91 1 4.2654588232505253e+00 8.0866372175062597e+00 1.6040690390916152e+00 0 0 0
90 1 5.7119959854875590e+00 6.6300475559309104e+00 2.7887439504557138e-01 0 0 0
93 1 7.1646710350149618e+00 5.2860998786192566e+00 1.5393767650174552e+00 0 0 0
98 1 1.1197949744494601e+01 6.7487184315597357e+00 3.3804726762475279e-01 0 0 0
101 1 1.2542790249917953e+01 5.2832930356632959e+00 1.5565991658649787e+00 0 0 0
106 1 1.6458198844859233e+01 6.6936269973188267e+00 2.5935171107241994e-01 0 0 0
21 1 1.2581309220773422e+01 -5.4974980079262821e+00 1.6154069138959650e+00 0 0 0
109 1 1.8038745387507706e+01 5.3860819046880390e+00 1.6132127190157348e+00 0 0 0
114 1 2.1975092717679871e+01 6.7004467807980443e+00 2.6318274866139940e-01 0 0 0
115 1 2.0619511130863327e+01 8.1367203433861501e+00 1.6034850399221676e+00 0 0 0
13 1 7.3000025773511990e+00 -5.4014136209395645e+00 1.5453270126763785e+00 0 0 0
117 1 2.3302096336378430e+01 5.3634916246015738e+00 1.6820554720756729e+00 0 0 0
81 1 2.6012382117796513e+01 5.5893289195794917e+00 -1.0342222019922964e+00 -1 0 0
125 1 1.5704697957356564e+00 1.0746570958400348e+01 1.6344016296250918e+00 0 0 0
88 1 3.0714665264739920e+00 9.5232304390344673e+00 2.2093422039123606e-01 0 0 0
9 1 4.4758735974615123e+00 -5.4083510907212826e+00 -9.9055012432402489e-01 0 0 0
133 1 6.9933539959808257e+00 1.0663238708714831e+01 1.6999024863589713e+00 0 0 0
99 1 9.8786054139210666e+00 8.0833373902569718e+00 1.6672363672434940e+00 0 0 0
96 1 8.4853964144746250e+00 9.5403388463513856e+00 2.7250089694618634e-01 0 0 0
5 1 1.6930713165435414e+00 -5.5133341214541076e+00 1.6548813771785515e+00 0 0 0
2112 1 1.9252775615423264e+01 9.5381767657930592e+00 1.1137262583960432e+01 0 0 0
104 1 1.3844594003023158e+01 9.4179820447979239e+00 8.9663725004777955e-02 0 0 0
141 1 1.2497166049656284e+01 1.0778491987420553e+01 1.5665440522637619e+00 0 0 0
107 1 1.5130819419973639e+01 8.2135381067893896e+00 1.5292917763334828e+00 0 0 0
2145 1 1.5129367387097943e+01 1.0769171841779812e+01 9.8345708819698672e+00 0 0 0
149 1 1.7846222066007790e+01 1.0734003711442638e+01 1.4846144731409596e+00 0 0 0
112 1 1.9233171129110470e+01 9.5017884474576491e+00 1.0131358630426829e-01 0 0 0
157 1 2.3194720400046904e+01 1.0926511630274703e+01 1.4888562645568209e+00 0 0 0
120 1 2.4697263381810430e+01 9.5375021051972215e+00 2.0049510419026903e-01 0 0 0
83 1 2.6054661484659423e+01 8.2621905626354710e+00 1.6034693650528729e+00 -1 0 0
2104 1 1.3818695586714476e+01 9.4988707186028929e+00 1.1185085798138498e+01 0 0 0
1007 1 1.5670730351314528e+00 -2.6038563462484561e+00 4.2307307129816047e+00 0 0 0
6 1 2.9688027078448469e+00 -4.0400070737752083e+00 2.9186401084618079e+00 0 0 0
1015 1 6.9957917638363076e+00 -2.7189688034224284e+00 4.4321612035897884e+00 0 0 0
1010 1 5.5206300033821849e+00 -4.0505453705313439e+00 5.7397977551659771e+00 0 0 0
14 1 8.5596061984360379e+00 -4.0218415608641758e+00 2.9850529983138170e+00 0 0 0
2121 1 -1.0252172696146076e+00 1.0743548183199444e+01 9.7014901358929997e+00 0 0 0
1018 1 1.1123798197432123e+01 -4.1095571160938258e+00 5.6255369380332185e+00 0 0 0
22 1 1.3807497391067605e+01 -4.1229212269316351e+00 3.0759524702581729e+00 0 0 0
1023 1 1.2571018802548233e+01 -2.7639045706541094e+00 4.4671542463131217e+00 0 0 0
1031 1 1.7808557540381965e+01 -2.7627902295344411e+00 4.3674506849894410e+00 0 0 0
30 1 1.9329275012967166e+01 -4.0778907975471839e+00 2.9092632797085085e+00 0 0 0
1033 1 2.0743471336298544e+01 -5.2989654501814583e+00 4.3663233694771275e+00 0 0 0
38 1 2.4934614047056304e+01 -3.9320737515573141e+00 3.0852614001224281e+00 0 0 0
1039 1 2.3453485761157367e+01 -2.5616937158282895e+00 4.3218806186630916e+00 0 0 0
4 1 1.3985825655447634e-01 -1.1898945743333769e+00 3.1074978489209668e+00 0 0 0
1042 1 3.9655586319140396e-01 1.4930470153224500e+00 5.7507227362460220e+00 0 0 0
1049 1 4.2772379160400531e+00 1.0899020004019384e-01 4.3598911740058757e+00 0 0 0
1008 1 2.8898350269927304e+00 -1.3360640917605240e+00 5.7318206339964872e+00 0 0 0
12 1 5.6342579715115413e+00 -1.3520336360633414e+00 3.0111039799063199e+00 0 0 0
54 1 8.4616706308362684e+00 1.2946875845439552e+00 3.0858184149510666e+00 0 0 0
1057 1 9.8512691487355806e+00 -5.3360189669390011e-02 4.3230698532272420e+00 0 0 0
1016 1 8.3555209808196391e+00 -1.2240448869582619e+00 5.6309084521513899e+00 0 0 0
20 1 1.1209134001688401e+01 -1.4980223272639719e+00 3.0464035004623264e+00 0 0 0
1058 1 1.1157669449225905e+01 1.4069972717136627e+00 5.6419917271590814e+00 0 0 0
1024 1 1.3928111510876001e+01 -1.3991050922672037e+00 5.7969569978788131e+00 0 0 0
1065 1 1.5120406610125643e+01 3.7693961009562016e-02 4.3092635608826955e+00 0 0 0
28 1 1.6460838252491719e+01 -1.3733405052787300e+00 2.9296707752949791e+00 0 0 0
1073 1 2.0529432911941342e+01 5.4310742564401014e-02 4.4399128635890754e+00 0 0 0
36 1 2.2002274456991195e+01 -1.2806770152982381e+00 3.1122536446529554e+00 0 0 0
1041 1 2.5999868937196233e+01 1.0402937672357107e-01 4.5013867535310936e+00 -1 0 0
78 1 2.4808705999011504e+01 1.3576452058703752e+00 3.0254716376872448e+00 0 0 0
44 1 2.4182192088556032e-01 4.1284673675993231e+00 2.9779891744943110e+00 0 0 0
1047 1 1.6079508846650707e+00 2.7313236534842722e+00 4.2897730814472244e+00 0 0 0
46 1 3.0282379002693176e+00 1.3704975829690471e+00 2.9437066631243010e+00 0 0 0
1048 1 2.9997472664497704e+00 3.8789311749073669e+00 5.5590559692445716e+00 0 0 0
52 1 5.8058111003346928e+00 3.8761549129529258e+00 2.9557960069921938e+00 0 0 0
1055 1 7.0312259726140915e+00 2.5887167470989332e+00 4.4051599270817370e+00 0 0 0
1056 1 8.4531470359458538e+00 4.0183468143363061e+00 5.7272918104177286e+00 0 0 0
60 1 1.1132302648876282e+01 4.1430272651026838e+00 3.0453033280381319e+00 0 0 0
62 1 1.3777016282658185e+01 1.2630838825802773e+00 2.8839115091091756e+00 0 0 0
1063 1 1.2501465837331091e+01 2.7538640115189890e+00 4.3013743475779327e+00 0 0 0
68 1 1.6640307766613837e+01 4.0325510186900440e+00 2.9156185404333148e+00 0 0 0
1071 1 1.7940590784288947e+01 2.6853651211651823e+00 4.2846742271299139e+00 0 0 0
70 1 1.9258429536285419e+01 1.1735133657666721e+00 2.9969393847171739e+00 0 0 0
76 1 2.1922082843189045e+01 3.9850813339877211e+00 3.1206289225850217e+00 0 0 0
1079 1 2.3420889881732766e+01 2.8360979864185345e+00 4.4310502461089012e+00 0 0 0
1087 1 1.7308962786641449e+00 8.1057599459174039e+00 4.4822831505173051e+00 0 0 0
1089 1 4.4435273572718161e+00 5.2766772962658317e+00 4.3098745422900526e+00 0 0 0
86 1 3.0060072023313382e+00 6.6821986792056070e+00 3.0032428146884946e+00 0 0 0
94 1 8.3753395002393862e+00 6.8092924577656069e+00 2.9654708387746735e+00 0 0 0
1097 1 9.8372850234008951e+00 5.3725916772051860e+00 4.3690229236555647e+00 0 0 0
1103 1 1.2504436107525285e+01 8.1209038460845413e+00 4.2324541026944837e+00 0 0 0
102 1 1.3887077026819849e+01 6.7276919828041324e+00 2.9276364000765760e+00 0 0 0
1105 1 1.5280058143217396e+01 5.4391829999639985e+00 4.3132023967120281e+00 0 0 0
110 1 1.9300584286168707e+01 6.8219962017470888e+00 2.9670212995409639e+00 0 0 0
1113 1 2.0562419716370346e+01 5.4998960873123854e+00 4.3766745324025509e+00 0 0 0
118 1 2.4626506182510923e+01 6.8476225778529232e+00 2.9653222819694243e+00 0 0 0
1119 1 2.3249988547800406e+01 8.0660589024257181e+00 4.4021235883390890e+00 0 0 0
1081 1 2.6058818121141428e+01 5.4207612996674266e+00 4.2481955970361289e+00 -1 0 0
84 1 2.9510950708285733e-01 9.4612343087880024e+00 3.0882335382122674e+00 0 0 0
1129 1 4.2134899481429313e+00 1.0778578034999130e+01 4.3792525879669997e+00 0 0 0
1095 1 6.9186852020114049e+00 8.0249007950328828e+00 4.3579217310063463e+00 0 0 0
92 1 5.6120753789019631e+00 9.3297205152298197e+00 2.9978090159106259e+00 0 0 0
1137 1 9.7656094199748651e+00 1.0767248682455767e+01 4.4031469056346051e+00 0 0 0
100 1 1.1119645059636508e+01 9.4562278601218228e+00 3.0709771412069258e+00 0 0 0
1145 1 1.5194089090384587e+01 1.0627605119770848e+01 4.3588201377020939e+00 0 0 0
108 1 1.6528712530881538e+01 9.4171844114369456e+00 2.9025889017859612e+00 0 0 0
1111 1 1.7903461691562743e+01 8.0418148814001871e+00 4.4949246488861689e+00 0 0 0
1153 1 2.0615780340343417e+01 1.0845667976330358e+01 4.2849589744756624e+00 0 0 0
116 1 2.2038367915625948e+01 9.4283909280468290e+00 2.9200041314805594e+00 0 0 0
1120 1 2.4684780124560216e+01 9.3569570241597066e+00 5.6352965078998709e+00 0 0 0
1121 1 2.6031893108035028e+01 1.0819148314675346e+01 4.3977152542207900e+00 -1 0 0
1002 1 3.9626877037912167e-01 -4.0325653917880802e+00 5.7723860720730302e+00 0 0 0
1011 1 4.3556548290467285e+00 -2.5922079953294910e+00 7.1198235127818261e+00 0 0 0
1006 1 3.0037877829271755e+00 -4.1347346790014479e+00 8.5848495263732953e+00 0 0 0
1013 1 7.1086409177668886e+00 -5.3561213710288733e+00 6.9465430378895112e+00 0 0 0
1019 1 9.7442468244042768e+00 -2.6279918253495524e+00 7.0559958178612368e+00 0 0 0
1014 1 8.3607364453597874e+00 -3.9104004299154158e+00 8.3328516133811839e+00 0 0 0
2120 1 2.4742549126372477e+01 9.5052735377552562e+00 1.1051475510096873e+01 0 0 0
1022 1 1.3953282509024675e+01 -4.0760768598192074e+00 8.3701201309918662e+00 0 0 0
1027 1 1.5252579224990738e+01 -2.8082476932194282e+00 7.0270199878494788e+00 0 0 0
1026 1 1.6537646139228546e+01 -4.2108738399954797e+00 5.7408237714817680e+00 0 0 0
1030 1 1.9429496064859887e+01 -4.1592171981779567e+00 8.4559481001861965e+00 0 0 0
1034 1 2.2158466526947660e+01 -3.8939503625132064e+00 5.7476201075123949e+00 0 0 0
1035 1 2.0583397209608233e+01 -2.7631755841498662e+00 7.0413459519274797e+00 0 0 0
1038 1 2.4854272280148756e+01 -4.1700534602230288e+00 8.4301744974894941e+00 0 0 0
1003 1 -1.0613761612821513e+00 -2.7338487470862916e+00 7.0257265411945919e+00 0 0 0
1045 1 1.6691492338663838e+00 -1.8630317739965856e-02 7.1470550255860461e+00 0 0 0
1004 1 2.7684937327274206e-01 -1.3389882582565027e+00 8.4092100494376609e+00 0 0 0
1053 1 7.0510897960037378e+00 1.1877362829375078e-02 7.1049873077583943e+00 0 0 0
1012 1 5.7562842245070183e+00 -1.2969297092645407e+00 8.5641785443019192e+00 0 0 0
1020 1 1.1112957867635293e+01 -1.4280098387844073e+00 8.4498832634139820e+00 0 0 0
1061 1 1.2491802098475048e+01 1.6245491136713110e-02 7.1227677539854257e+00 0 0 0
1028 1 1.6690198700573376e+01 -1.3767511227249751e+00 8.2238454635123013e+00 0 0 0
1069 1 1.7899321833603640e+01 9.8885219301975955e-02 6.9582255005219062e+00 0 0 0
1032 1 1.9235835815904903e+01 -1.4162982032371021e+00 5.6843197991911953e+00 0 0 0
1074 1 2.1906219317287835e+01 1.5469862584827130e+00 5.6909581925258470e+00 0 0 0
1036 1 2.1951251666147403e+01 -1.3169909558930455e+00 8.4272588723628257e+00 0 0 0
1077 1 2.3249147760664993e+01 2.0091658571693255e-01 7.0409234932949873e+00 0 0 0
1040 1 2.4687699699559385e+01 -1.2255258007581535e+00 5.8712799501148734e+00 0 0 0
1044 1 3.3850624061483570e-01 4.0792770230890012e+00 8.4455749729845166e+00 0 0 0
1051 1 4.3573345665228658e+00 2.7421245825044873e+00 7.0813426946748592e+00 0 0 0
1046 1 3.0300681293801950e+00 1.3219847160997436e+00 8.4598845898979818e+00 0 0 0
1050 1 5.6955325936524881e+00 1.2578949448513976e+00 5.7746128141918884e+00 0 0 0
1052 1 5.7344185197941284e+00 4.1786616236784706e+00 8.5382928522429964e+00 0 0 0
1059 1 9.8303742645086238e+00 2.7206683342450124e+00 7.1046178687643708e+00 0 0 0
1054 1 8.5057270036902572e+00 1.3446850874858798e+00 8.4521588962487506e+00 0 0 0
1060 1 1.1350997094861317e+01 3.9283956427035500e+00 8.4328783506125067e+00 0 0 0
1064 1 1.3920675397990591e+01 4.1142528839417567e+00 5.5514218801235495e+00 0 0 0
1062 1 1.3829056426498061e+01 1.3731542286956211e+00 8.4172878485647242e+00 0 0 0
1066 1 1.6414517083181234e+01 1.4902164195683301e+00 5.7247412621101192e+00 0 0 0
1067 1 1.5153941128333370e+01 2.7696019080715275e+00 7.0494404468706673e+00 0 0 0
1068 1 1.6633202138440968e+01 3.9942570525630168e+00 8.3577668203900100e+00 0 0 0
1072 1 1.9191536399367468e+01 4.0853982129355355e+00 5.6468350307219932e+00 0 0 0
1070 1 1.9242917113061182e+01 1.3430189137826767e+00 8.4161048745017197e+00 0 0 0
1075 1 2.0391547686125858e+01 2.8144557940071815e+00 7.0945162822463654e+00 0 0 0
1076 1 2.1909883459035413e+01 4.0592014006051027e+00 8.4842576098770959e+00 0 0 0
1080 1 2.4811978209467341e+01 4.1472537114702073e+00 5.8174816755125978e+00 0 0 0
1078 1 2.4707874799012860e+01 1.4229962011383324e+00 8.4729456071389055e+00 0 0 0
1043 1 2.6049084668989234e+01 2.8356849361335543e+00 7.1898989778016071e+00 -1 0 0
1082 1 3.5243834867585005e-01 6.6865162427976692e+00 5.7451952498540813e+00 0 0 0
1085 1 1.7739526912042398e+00 5.4242179274715552e+00 7.1545824630488557e+00 0 0 0
1091 1 4.3626381373041436e+00 8.2448737674643109e+00 7.1141486977488437e+00 0 0 0
1086 1 2.9950322309205322e+00 6.9168049084226206e+00 8.4785982851299995e+00 0 0 0
1090 1 5.5834130448085055e+00 6.7471688071334048e+00 5.7194329496060394e+00 0 0 0
1093 1 6.9371387831354046e+00 5.4548370350360367e+00 6.8975790020732406e+00 0 0 0
1099 1 9.7594509346365346e+00 7.9564821598436959e+00 7.1075194482907493e+00 0 0 0
1094 1 8.4918085759463455e+00 6.5864200792224459e+00 8.3384800178912499e+00 0 0 0
1098 1 1.1185291728474105e+01 6.7532053236575438e+00 5.6371050471015849e+00 0 0 0
1101 1 1.2567736602375128e+01 5.3009638124112071e+00 6.9250915246687796e+00 0 0 0
1102 1 1.3807210665782030e+01 6.5517870056831669e+00 8.4313545587370431e+00 0 0 0
1106 1 1.6558098629317303e+01 6.6812217826516962e+00 5.7624675538140080e+00 0 0 0
1109 1 1.7919415033311470e+01 5.4099533497751011e+00 7.1035684429265853e+00 0 0 0
1110 1 1.9377032525480828e+01 6.8503430960004721e+00 8.4393210459875814e+00 0 0 0
1114 1 2.1983575783686643e+01 6.7626136160711567e+00 5.8455811763070651e+00 0 0 0
1117 1 2.3242419534074074e+01 5.3840158667825770e+00 7.1023041177924231e+00 0 0 0
1118 1 2.4631763760692305e+01 6.7876280174759644e+00 8.2752102545870247e+00 0 0 0
1083 1 -1.0360134831486327e+00 8.0611223036888990e+00 6.9945768308286036e+00 0 0 0
1125 1 1.3869355945004671e+00 1.0879561016166427e+01 7.1569672349404216e+00 0 0 0
1084 1 2.0951951938097749e-01 9.3413752827752532e+00 8.3840006723042872e+00 0 0 0
1088 1 3.0435329722948290e+00 9.5567983035392210e+00 5.8404612624497174e+00 0 0 0
1133 1 7.1097047177731945e+00 1.0795805415481697e+01 6.9896699464792356e+00 0 0 0
1092 1 5.6359530121014378e+00 9.5217907017662178e+00 8.3918668863801571e+00 0 0 0
1096 1 8.3707069486094134e+00 9.3102785758455937e+00 5.7363671455730252e+00 0 0 0
1141 1 1.2549235370701989e+01 1.0724445240112855e+01 7.1473727666129392e+00 0 0 0
1100 1 1.1144293297076517e+01 9.4211817757613794e+00 8.3905711199912698e+00 0 0 0
1104 1 1.3822769033707607e+01 9.3222920901280446e+00 5.7585309729987308e+00 0 0 0
1107 1 1.5251280287404526e+01 7.9301098592640082e+00 7.1428137985456424e+00 0 0 0
1108 1 1.6417967363517608e+01 9.3231522009195658e+00 8.5387522636035165e+00 0 0 0
1149 1 1.7709320209131089e+01 1.0778685227022235e+01 7.1238423338647143e+00 0 0 0
1112 1 1.9318995458985015e+01 9.5387031500937987e+00 5.7909906846414900e+00 0 0 0
1115 1 2.0689440852937853e+01 8.2027836036854875e+00 7.0624675063542632e+00 0 0 0
1116 1 2.1943388646553895e+01 9.5871510977581327e+00 8.5683405092785474e+00 0 0 0
1157 1 2.3343805076205829e+01 1.0783012767409838e+01 7.0831577256729865e+00 0 0 0
2007 1 1.5630603641478598e+00 -2.6603298479026178e+00 9.7927351387204347e+00 0 0 0
2002 1 3.2171154257966733e-01 -4.1252811532859779e+00 1.1109763865531468e+01 0 0 0
2153 1 2.0604019295173774e+01 1.0963827892387027e+01 9.8375370622761888e+00 0 0 0
2103 1 1.2612246958862958e+01 8.0181788175654649e+00 9.7854353369546523e+00 0 0 0
2011 1 4.3660629559681174e+00 -2.6162043211007804e+00 1.2392753808106290e+01 0 0 0
2015 1 7.0177815239752261e+00 -2.7228985458909816e+00 9.8218793995249829e+00 0 0 0
2010 1 5.7310631528584519e+00 -4.0856491466017895e+00 1.1235690220907495e+01 0 0 0
2017 1 9.8374305877917880e+00 -5.3244227512660594e+00 9.5335081844017324e+00 0 0 0
2023 1 1.2476896122480420e+01 -2.7690938736438762e+00 9.6656362588619071e+00 0 0 0
2018 1 1.1165248642174294e+01 -4.1736968959076330e+00 1.1088549436772626e+01 0 0 0
2025 1 1.5213757957064653e+01 -5.4753399973878487e+00 9.6880885983311256e+00 0 0 0
2026 1 1.6716201817057250e+01 -4.1073183085153664e+00 1.0990974508049721e+01 0 0 0
2031 1 1.8082879411201489e+01 -2.6957995585322916e+00 9.6541741474153007e+00 0 0 0
2034 1 2.2210560361901965e+01 -4.1197292882762113e+00 1.1139958080306638e+01 0 0 0
2039 1 2.3494380394521791e+01 -2.6987623860405408e+00 9.7851615752842882e+00 0 0 0
2042 1 3.0238588225835167e-01 1.2914406525495423e+00 1.1150621404091273e+01 0 0 0
2041 1 2.6072104705052574e+01 8.4953412259850716e-02 9.6804435954858263e+00 -1 0 0
2049 1 4.3452128517777613e+00 3.7618253803507577e-02 9.8474729859019927e+00 0 0 0
2008 1 2.9904488429926990e+00 -1.3561401193494307e+00 1.1120528945012570e+01 0 0 0
2057 1 9.7858638407458205e+00 8.6073367553150936e-03 9.6738549913082625e+00 0 0 0
2016 1 8.4095978379951593e+00 -1.2734061183282923e+00 1.1114962908457629e+01 0 0 0
2024 1 1.3888872324243588e+01 -1.3335817642582326e+00 1.1162484516772604e+01 0 0 0
2065 1 1.5267666244164889e+01 -5.0308835404841934e-02 9.8051367603386108e+00 0 0 0
2066 1 1.6620166888884430e+01 1.2979791896636759e+00 1.1149410738600270e+01 0 0 0
2032 1 1.9399899631822347e+01 -1.3775869282775326e+00 1.1089443739158666e+01 0 0 0
2073 1 2.0754696956931930e+01 8.1728135616626063e-02 9.8911887968214725e+00 0 0 0
2040 1 2.4707587428085318e+01 -1.2682511168291748e+00 1.1147282662355067e+01 0 0 0
2047 1 1.8039496002471482e+00 2.6873650827806670e+00 1.0001228167235283e+01 0 0 0
2043 1 -1.0296762190258266e+00 2.5104270086889846e+00 1.2470276777864163e+01 0 0 0
2048 1 3.1134404832134299e+00 4.0710954681778722e+00 1.1219998241825317e+01 0 0 0
2055 1 7.0162955295414946e+00 2.7377840799320698e+00 9.7744666776038596e+00 0 0 0
2050 1 5.6822172041156191e+00 1.3835832319006358e+00 1.1227760398933805e+01 0 0 0
2056 1 8.5175530211939208e+00 3.9775351974485162e+00 1.1143932495156788e+01 0 0 0
2096 1 8.5392913079631558e+00 9.3559974937973571e+00 1.1175345563236432e+01 0 0 0
2058 1 1.1087078888505554e+01 1.3062398815385829e+00 1.1106376431260435e+01 0 0 0
2064 1 1.3944785032291568e+01 3.8457587598360252e+00 1.1033282676746321e+01 0 0 0
2063 1 1.2521794461236475e+01 2.5261061308307227e+00 9.8439162955917983e+00 0 0 0
2071 1 1.7902725625483161e+01 2.6842276168971493e+00 9.7096200062228117e+00 0 0 0
2072 1 1.9279362076130433e+01 3.9022687128763307e+00 1.1148660057555302e+01 0 0 0
2074 1 2.2093113658270063e+01 1.5250155291510681e+00 1.1228626527272082e+01 0 0 0
2079 1 2.3355132864280367e+01 2.8242118524763424e+00 9.8221458267815116e+00 0 0 0
2080 1 2.4893542585329847e+01 4.0913100926931181e+00 1.1175477172179738e+01 0 0 0
2082 1 3.2650283538937963e-01 6.7711933543965088e+00 1.1122596143042431e+01 0 0 0
2081 1 -1.0629161423975670e+00 5.4705659816769794e+00 9.7121609515455702e+00 0 0 0
2089 1 4.3340103090218216e+00 5.5264082406065951e+00 9.7970217786693361e+00 0 0 0
2090 1 5.7047197470977551e+00 6.8993036662728917e+00 1.1071558103569727e+01 0 0 0
2097 1 9.9140566022480243e+00 5.2585268670536287e+00 9.7827953378286026e+00 0 0 0
2098 1 1.1239240334401323e+01 6.7235421186943061e+00 1.1091014595432048e+01 0 0 0
2105 1 1.5260349806181127e+01 5.2760842429757382e+00 9.7309658109982298e+00 0 0 0
2106 1 1.6586841086275726e+01 6.6317942187910717e+00 1.0997612413657126e+01 0 0 0
2111 1 1.7884416504342813e+01 8.0628867221487308e+00 9.8287260693117666e+00 0 0 0
2113 1 2.0719181494688115e+01 5.5457241587130071e+00 9.9063673717144205e+00 0 0 0
2114 1 2.2124888287655249e+01 6.9166442092752822e+00 1.1227090017005070e+01 0 0 0
2119 1 2.3455332024559119e+01 8.1533351583407789e+00 9.6593749202883483e+00 0 0 0
2137 1 9.7627765305693668e+00 1.0890498449274162e+01 9.7752018718941294e+00 0 0 0
2087 1 1.5691755854687603e+00 8.1804634173930850e+00 9.8181691200541810e+00 0 0 0
2129 1 4.2077282842523491e+00 1.0816229448001948e+01 9.8015230309456118e+00 0 0 0
2088 1 2.8804367784996918e+00 9.5308600240162633e+00 1.1322205001537643e+01 0 0 0
2095 1 7.1120460376897894e+00 7.9732115579436336e+00 9.5974044858280205e+00 0 0 0
2019 1 9.8523857755611495e+00 -2.5382617541081709e+00 1.2364765249398944e+01 0 0 0
2027 1 1.5418750452426311e+01 -2.6163002766051902e+00 1.2349437915555393e+01 0 0 0
2035 1 2.0726536257633349e+01 -2.8394736031642958e+00 1.2450468139922714e+01 0 0 0
2045 1 1.6175576592217344e+00 -1.3083601227025030e-01 1.2478297045065601e+01 0 0 0
2069 1 1.7985755641288886e+01 -8.1813343629584034e-02 1.2481794223483670e+01 0 0 0
2067 1 1.5236461757410849e+01 2.6697134776217095e+00 1.2491952432888283e+01 0 0 0
2085 1 1.6948298973233769e+00 5.4132589503336543e+00 1.2460338227507096e+01 0 0 0
2093 1 7.0170681488684803e+00 5.4257013959671117e+00 1.2405130471928761e+01 0 0 0
2099 1 9.8526768780641003e+00 8.0029695207499589e+00 1.2459192164050240e+01 0 0 0
2101 1 1.2673801608237270e+01 5.2542487052288047e+00 1.2463297266951946e+01 0 0 0
2109 1 1.7876185566824756e+01 5.3478260247206144e+00 1.2447240345372920e+01 0 0 0
2091 1 4.2542183524890760e+00 8.1509188400226353e+00 1.2489639971530549e+01 0 0 0
2133 1 7.0027063758162109e+00 1.0731570833659934e+01 1.2412853690697023e+01 0 0 0
2107 1 1.5249669771917006e+01 8.1349891076921761e+00 1.2487631577517131e+01 0 0 0
2149 1 1.7938418968737714e+01 1.0931470803948384e+01 1.2469526751616607e+01 0 0 0
2115 1 2.0622772627458545e+01 8.2710211922290657e+00 1.2446551384206622e+01 0 0 0
119 1 2.3298008399943502e+01 8.0325156408734522e+00 -1.0389490201146643e+00 0 0 0
2083 1 2.5959601619127994e+01 8.0788796772275635e+00 1.2488407997980387e+01 -1 0 0
2157 1 2.3430863155903591e+01 1.0943989115925119e+01 1.2367741682795094e+01 0 0 0
55 1 7.2095005312177340e+00 2.7094134649879318e+00 -1.0364785213547627e+00 0 0 0
95 1 7.1611561292202053e+00 8.0727880990475924e+00 -1.0675864003328712e+00 0 0 0
3007 1 1.6177414338686162e+00 -2.6839645019003355e+00 1.5288529737622378e+01 0 0 0
3001 1 -1.0084099072890491e+00 -5.4361231767673424e+00 1.5221268258523319e+01 0 0 0
2006 1 2.9652398719711024e+00 -4.0380755934734118e+00 1.3862643163995623e+01 0 0 0
3015 1 7.0726816494544824e+00 -2.7638730573771180e+00 1.5190325887459379e+01 0 0 0
2014 1 8.5620163333478789e+00 -3.9684364324113321e+00 1.3717303099948667e+01 0 0 0
4029 1 1.7969100743012362e+01 -5.2559810220724614e+00 2.3327562243621468e+01 0 0 0
4157 1 2.3255079591764417e+01 1.0696975091266225e+01 2.3182408025369924e+01 0 0 0
2022 1 1.3908927648725202e+01 -4.0468117142288431e+00 1.3566674019662841e+01 0 0 0
3023 1 1.2543040480626930e+01 -2.9626601824958048e+00 1.5070296234467072e+01 0 0 0
3037 1 2.3325149201568735e+01 -5.2744176681563033e+00 1.8075295704521423e+01 0 0 0
2030 1 1.9259613069963077e+01 -4.1290471415873720e+00 1.4004295675142240e+01 0 0 0
3031 1 1.7932785529878956e+01 -2.6913701209518468e+00 1.5252087638727136e+01 0 0 0
3029 1 1.7978165332232560e+01 -5.4304237082642999e+00 1.7963862817134956e+01 0 0 0
2037 1 2.3383739545383985e+01 -5.4547020538289583e+00 1.2524449015844453e+01 0 0 0
2038 1 2.4865579433727042e+01 -4.0491078123564890e+00 1.3810276871393762e+01 0 0 0
3039 1 2.3376057395175209e+01 -2.7645285549971135e+00 1.5264261263827274e+01 0 0 0
3033 1 2.0672054809877448e+01 -5.4896168207105802e+00 1.5348184539321128e+01 0 0 0
2004 1 2.4757238163966980e-01 -1.3494093344660263e+00 1.3902439461783397e+01 0 0 0
3041 1 2.6023843689290928e+01 -3.2520903818606277e-02 1.5230971998248291e+01 -1 0 0
2046 1 2.9487134790593346e+00 1.3033242616043832e+00 1.3817423699309476e+01 0 0 0
3049 1 4.2777674519863504e+00 -1.8410548410820196e-01 1.5198481566593751e+01 0 0 0
2012 1 5.7583570329547928e+00 -1.3585059252060039e+00 1.3866012174228338e+01 0 0 0
2053 1 7.0433235562192795e+00 -1.8207406327770539e-02 1.2532021803044435e+01 0 0 0
2054 1 8.4421890115677396e+00 1.4420221766633687e+00 1.3796209385579150e+01 0 0 0
3057 1 9.7338505543479563e+00 1.2701429467709410e-01 1.5196657062709644e+01 0 0 0
2020 1 1.1181928680637597e+01 -1.3295556169555367e+00 1.3834634275589401e+01 0 0 0
2062 1 1.3865025553809103e+01 1.3548518961990690e+00 1.3948958865968642e+01 0 0 0
2061 1 1.2527638705214184e+01 2.7472413204619489e-02 1.2516894517228124e+01 0 0 0
2028 1 1.6680872889108826e+01 -1.2492894859278918e+00 1.3933830386546852e+01 0 0 0
3065 1 1.5188321609709281e+01 -1.9323573053938819e-02 1.5260636495377648e+01 0 0 0
4037 1 2.3429575100728915e+01 -5.4339436853391021e+00 2.3426194299774785e+01 0 0 0
2070 1 1.9372964005911175e+01 1.2516910975279740e+00 1.3900081096825890e+01 0 0 0
2036 1 2.2007376112506918e+01 -1.4994169401711579e+00 1.3960285684750131e+01 0 0 0
3073 1 2.0696128987935232e+01 -1.5587300000848276e-02 1.5223228320268161e+01 0 0 0
2077 1 2.3318680382026834e+01 -2.7979090363363796e-02 1.2633019928902380e+01 0 0 0
2044 1 2.3369473018388934e-01 3.9806601466111196e+00 1.3746210269326857e+01 0 0 0
3047 1 1.8407396244224539e+00 2.7360624668815938e+00 1.5276735253151466e+01 0 0 0
2051 1 4.3694178856492680e+00 2.7058907514539161e+00 1.2560619673093612e+01 0 0 0
2052 1 5.6668120454801807e+00 4.2426124778795886e+00 1.3751003602387090e+01 0 0 0
3055 1 7.0100221510638665e+00 2.7660008298183723e+00 1.5040729408235133e+01 0 0 0
2060 1 1.1202336069574189e+01 4.0612215776331251e+00 1.3874171755483763e+01 0 0 0
3063 1 1.2409024334037616e+01 2.6775963572872956e+00 1.5252304840861994e+01 0 0 0
3025 1 1.5234546644903626e+01 -5.5042969777393296e+00 1.5000296795352613e+01 0 0 0
2068 1 1.6475585651231860e+01 3.9320946350438621e+00 1.3898136799346430e+01 0 0 0