LAMMPS data file via write_data, version 30 Jul 2016, timestep = 50000

5000 atoms
1 atom types

-1.1037168688014471e+00 2.6103716868801385e+01 xlo xhi
-5.5185843440072304e+00 1.3051858434400725e+02 ylo yhi
-1.1037168688014471e+00 2.6103716868801385e+01 zlo zhi

Masses

1 28.0855

Atoms # atomic

2 1 3.3420584612406762e-01 -4.1719325557494740e+00 2.3563847299097659e-01 0 0 0
3 1 -9.0499898120533140e-01 -2.6743474270598142e+00 1.7428947923537625e+00 0 0 0
7 1 1.7122658754548841e+00 -2.8555892197048092e+00 -1.0621934793542946e+00 0 0 0
11 1 4.2891339060096421e+00 -2.7090203947018874e+00 1.7015069157410021e+00 0 0 0
10 1 5.8309149128218731e+00 -3.9865611799492493e+00 2.7076257822586280e-01 0 0 0
2009 1 4.3597222547638088e+00 -5.5043624849533046e+00 9.8583907675003868e+00 0 0 0
19 1 9.9065679036858736e+00 -2.6227779237084481e+00 1.6923564677111900e+00 0 0 0
1037 1 2.3491454013920606e+01 -5.4760308763973171e+00 7.1517458214926313e+00 0 0 0
18 1 1.1180775905727025e+01 -4.2030761657378486e+00 3.6286086396355804e-01 0 0 0
23 1 1.2620799333044765e+01 -2.9609775218105878e+00 -1.0006125642367785e+00 0 0 0
27 1 1.5110851185047633e+01 -2.8006414779397786e+00 1.6336896254986981e+00 0 0 0
26 1 1.6630888039788122e+01 -3.9900975010673334e+00 2.8847429813527153e-01 0 0 0
31 1 1.7968968979563336e+01 -2.7053798845584720e+00 -1.1036412525693686e+00 0 0 0
34 1 2.2132823415767895e+01 -3.9168483709993116e+00 3.1013031767535548e-01 0 0 0
35 1 2.0778291530574482e+01 -2.5917968912018985e+00 1.7207431390629191e+00 0 0 0
1029 1 1.8016616012016140e+01 -5.5027473835978356e+00 7.1023262400305915e+00 0 0 0
41 1 -1.0585836808932754e+00 -6.8509747335701032e-02 -1.0428010978442266e+00 0 0 0
45 1 1.5381547374984004e+00 5.1036557154702698e-02 1.6016099388815235e+00 0 0 0
1005 1 1.6932208208002779e+00 -5.4215454925589484e+00 7.0722251006642862e+00 0 0 0
8 1 2.9711878221254895e+00 -1.3669873127312018e+00 2.6863761405404141e-01 0 0 0
53 1 6.9940816943883553e+00 -3.1314492607951668e-02 1.7089780718548511e+00 0 0 0
50 1 5.7491609482478321e+00 1.3182224679073871e+00 1.5048139267485425e-01 0 0 0
16 1 8.4504769662352039e+00 -1.4532163402653642e+00 3.3070952593447839e-01 0 0 0
57 1 9.8776290890353327e+00 -1.7999648331650842e-01 -1.0553096517765077e+00 0 0 0
58 1 1.1230978987476130e+01 1.2610334060981279e+00 1.7264446483195231e-01 0 0 0
24 1 1.3901930751441677e+01 -1.4151898545666910e+00 2.1590002907712130e-01 0 0 0
61 1 1.2498655203756819e+01 -1.6581955765835985e-01 1.6816489030521251e+00 0 0 0
66 1 1.6616998276821654e+01 1.3669446972454946e+00 1.9069270000176541e-01 0 0 0
1009 1 4.3844250648922127e+00 -5.3982640808378051e+00 4.2422250847337679e+00 0 0 0
69 1 1.7888762887006262e+01 -1.3512759725502502e-01 1.4504041986396987e+00 0 0 0
32 1 1.9328779774621413e+01 -1.3839073508744881e+00 1.4098866151831962e-01 0 0 0
73 1 2.0611048247083932e+01 7.8060004827629472e-03 -1.0752798903578362e+00 0 0 0
77 1 2.3507104959259294e+01 1.0009302398197821e-01 1.6581445299948352e+00 0 0 0
40 1 2.4717959535931406e+01 -1.4418762489491577e+00 3.9783052415196840e-01 0 0 0
42 1 1.5776496082820363e-01 1.3534640681124037e+00 2.2807986916265610e-01 0 0 0
1001 1 -9.4550936906959160e-01 -5.4320470666666552e+00 4.4520253787591271e+00 0 0 0
51 1 4.4424673650352791e+00 2.7321607598278650e+00 1.4844321815511421e+00 0 0 0
48 1 2.9846543047211611e+00 4.0070121287646785e+00 1.5757742507335201e-01 0 0 0
56 1 8.6712901262061841e+00 3.8976841220291916e+00 3.3245416829236046e-01 0 0 0
59 1 9.8938481927852031e+00 2.4968992431524097e+00 1.6973220664103130e+00 0 0 0
64 1 1.3835675441912654e+01 4.0447731448726811e+00 2.6143884176004278e-01 0 0 0
67 1 1.5235047641326057e+01 2.5772183813696663e+00 1.5790757906087300e+00 0 0 0
72 1 1.9378650149755824e+01 3.9757174223902569e+00 4.0441716559901791e-01 0 0 0
71 1 1.7994683304991366e+01 2.7909528885049721e+00 -1.0035394235667974e+00 0 0 0
74 1 2.2001043040394652e+01 1.2802682876594118e+00 3.5644638144030966e-01 0 0 0
75 1 2.0648991686815577e+01 2.6368818022917972e+00 1.7004548551787382e+00 0 0 0
79 1 2.3324862768211549e+01 2.5892193547488112e+00 -1.0600768364500444e+00 0 0 0
80 1 2.4678073697870715e+01 4.0847907572414552e+00 7.8762124792524882e-02 0 0 0
43 1 2.5961481721251069e+01 2.6469234534770303e+00 1.5598055337173975e+00 -1 0 0
82 1 3.2298928867183430e-01 6.8350318543083777e+00 3.8059566148629925e-01 0 0 0
85 1 1.5988980115647895e+00 5.4141373807006374e+00 1.6181648975077996e+00 0 0 0
37 1 2.3590153625329346e+01 -5.3465715736985260e+00 1.6451562332163960e+00 0 0 0
33 1 2.0722078431799488e+01 -5.4885347321524875e+00 -9.9413134863902841e-01 0 0 0
91 1 4.2882353487565128e+00 8.0789217898468006e+00 1.6800478274037316e+00 0 0 0
90 1 5.6735745117107239e+00 6.6424871181425589e+00 2.4711076104909618e-01 0 0 0
93 1 6.9794619965607261e+00 5.3010262924139360e+00 1.6283909512186598e+00 0 0 0
98 1 1.1107818125745966e+01 6.7708134532851005e+00 4.2209237235193514e-01 0 0 0
101 1 1.2568559273377122e+01 5.3676882207219663e+00 1.6566456699780565e+00 0 0 0
106 1 1.6527109073826395e+01 6.7986761897041523e+00 2.9778355236528331e-01 0 0 0
2029 1 1.8002204233931593e+01 -5.4549717804191005e+00 1.2472401597991663e+01 0 0 0
109 1 1.7990067268909762e+01 5.4032583775319631e+00 1.6380008608956658e+00 0 0 0
114 1 2.1982845660604241e+01 6.6265033987735560e+00 2.5235274540410985e-01 0 0 0
115 1 2.0652242118711822e+01 8.1383762411376868e+00 1.4941669239177813e+00 0 0 0
113 1 2.0696741413262266e+01 5.2942971657450926e+00 -1.0807350696691536e+00 0 0 0
117 1 2.3384366732141746e+01 5.3374913085143012e+00 1.6541859773046077e+00 0 0 0
81 1 2.6031082663820747e+01 5.6375777334133303e+00 -1.0413996198149971e+00 -1 0 0
125 1 1.5431219525688182e+00 1.0817540731076049e+01 1.6226045975432721e+00 0 0 0
88 1 2.9953618821331647e+00 9.5340609909878200e+00 2.7377400489228360e-01 0 0 0
29 1 1.8026376092676717e+01 -5.3775017110787076e+00 1.6290629300166792e+00 0 0 0
133 1 6.9735809124671047e+00 1.0651386853878083e+01 1.7102497232124425e+00 0 0 0
99 1 9.6825500784646383e+00 8.1249427918168049e+00 1.7187193938318763e+00 0 0 0
96 1 8.3839041558654177e+00 9.4846486993107302e+00 2.5423322764311640e-01 0 0 0
25 1 1.5326001120765273e+01 -5.4367776179643954e+00 -9.5445012694070575e-01 0 0 0
103 1 1.2356439523353147e+01 8.0225314266254166e+00 -1.0921140447368161e+00 0 0 0
104 1 1.3762589629188005e+01 9.4287554303442676e+00 1.3098069682728827e-01 0 0 0
141 1 1.2507349198758423e+01 1.0843064434493973e+01 1.6028864908251825e+00 0 0 0
107 1 1.5074439878317703e+01 8.1619598870178045e+00 1.5084362223073959e+00 0 0 0
13 1 7.2437842798587795e+00 -5.4360398326866175e+00 1.5664690673493953e+00 0 0 0
149 1 1.7791908336472645e+01 1.0832128485187456e+01 1.5620557797510677e+00 0 0 0
112 1 1.9235006120380266e+01 9.5458386565311528e+00 1.5848298209029421e-01 0 0 0
157 1 2.3269148616687758e+01 1.0945779833792809e+01 1.4926057883966468e+00 0 0 0
120 1 2.4736099654264887e+01 9.5168890638449142e+00 2.6012693474073761e-01 0 0 0
83 1 2.5995065981009041e+01 8.2279692220338472e+00 1.6388046336943005e+00 -1 0 0
9 1 4.4543824230296289e+00 -5.4702348368450942e+00 -1.0291116480653431e+00 0 0 0
1007 1 1.6063118367713787e+00 -2.7083288909738710e+00 4.2561895720083323e+00 0 0 0
6 1 2.9355568317094471e+00 -4.0797793740777291e+00 2.9922925799609423e+00 0 0 0
1015 1 7.0261640182976892e+00 -2.7522808523643856e+00 4.3043198752457359e+00 0 0 0
1010 1 5.7036114960939379e+00 -4.0476515275357992e+00 5.8047976536605708e+00 0 0 0
14 1 8.4801712548665549e+00 -4.0509380395243673e+00 3.0260835187883042e+00 0 0 0
2121 1 2.6023723652833059e+01 1.0710443225137913e+01 9.7548539348167633e+00 -1 0 0
1018 1 1.1230585094247699e+01 -4.0707290947118295e+00 5.6744438010170200e+00 0 0 0
22 1 1.3848569726282030e+01 -4.1314897555093442e+00 3.0177153758297584e+00 0 0 0
1023 1 1.2637858763406379e+01 -2.8082243797583217e+00 4.4348726178348885e+00 0 0 0
1031 1 1.7928703307208558e+01 -2.7728950821524201e+00 4.2489346939238022e+00 0 0 0
30 1 1.9379848343716539e+01 -4.0507526752924239e+00 2.9854661911899467e+00 0 0 0
1033 1 2.0765786930581122e+01 -5.3227930283247344e+00 4.3787981630201696e+00 0 0 0
38 1 2.4945026808891232e+01 -4.0101796182394889e+00 3.1191679174849494e+00 0 0 0
1039 1 2.3442394686069782e+01 -2.5178917888037291e+00 4.3777148496459652e+00 0 0 0
4 1 2.3909280055151880e-01 -1.2354543851454123e+00 3.0804569278315164e+00 0 0 0
1042 1 2.7074806421484010e-01 1.5559572534244053e+00 5.8378952920223854e+00 0 0 0
1049 1 4.2748239993056947e+00 6.8449425614924037e-02 4.4370108519429303e+00 0 0 0
1008 1 2.9238714434115032e+00 -1.4628756772514606e+00 5.7464608857221444e+00 0 0 0
12 1 5.5624740117054277e+00 -1.3984149023739472e+00 2.9978026971858633e+00 0 0 0
54 1 8.4400231313372434e+00 1.3034564277332703e+00 3.0647452358927563e+00 0 0 0
1057 1 9.7937049831527201e+00 -1.0227464828134081e-01 4.3804797260105541e+00 0 0 0
1016 1 8.3153721708959853e+00 -1.3061809388808134e+00 5.6655486608363654e+00 0 0 0
20 1 1.1177920859199501e+01 -1.4580493540306367e+00 3.1350428010086997e+00 0 0 0
1058 1 1.1147288107940039e+01 1.4265780222052764e+00 5.7679746145695683e+00 0 0 0
1024 1 1.3896438741281347e+01 -1.3490754297698957e+00 5.7022030963602459e+00 0 0 0
1065 1 1.5252259721870846e+01 -1.5591887782571052e-02 4.3369148092572463e+00 0 0 0
28 1 1.6440324620578753e+01 -1.3882209974052642e+00 2.8669338645814864e+00 0 0 0
1073 1 2.0512037308487606e+01 1.0948617214565189e-01 4.3953005925257447e+00 0 0 0
36 1 2.2013705863744576e+01 -1.1635703167054638e+00 3.0567962765982792e+00 0 0 0
1041 1 -1.0470830778611351e+00 4.6880880502466089e-02 4.4088089314694709e+00 0 0 0
78 1 2.4771012851111163e+01 1.3343805285919594e+00 3.1536996020821859e+00 0 0 0
44 1 2.2557853266180264e-01 4.0334922170792469e+00 3.0607115324353176e+00 0 0 0
1047 1 1.5776468044070873e+00 2.7931626815116686e+00 4.3550128912552344e+00 0 0 0
46 1 3.1129047875345508e+00 1.4398149320524520e+00 2.9534649559509170e+00 0 0 0
1048 1 3.1066400994699053e+00 4.0627332619888836e+00 5.6446489947292511e+00 0 0 0
52 1 5.8340843435208036e+00 3.8835339618585443e+00 3.0572793541991525e+00 0 0 0
1055 1 7.1764281098153413e+00 2.6291577793924206e+00 4.4776285990891198e+00 0 0 0
1056 1 8.4456499110993217e+00 4.1170204479325099e+00 5.8003806877932140e+00 0 0 0
60 1 1.1128892727755041e+01 4.0587200251734341e+00 3.0075779455216400e+00 0 0 0
62 1 1.3886253157613561e+01 1.2718707992400875e+00 2.9343703500088587e+00 0 0 0
1063 1 1.2567556587396334e+01 2.7080978699536091e+00 4.2348297649573095e+00 0 0 0
68 1 1.6664644001706620e+01 4.0245505339990819e+00 2.9163807730629134e+00 0 0 0
1071 1 1.7887096596137045e+01 2.7880653174968630e+00 4.3577055968851548e+00 0 0 0
70 1 1.9162796422637207e+01 1.2674448401488494e+00 2.9406338881336125e+00 0 0 0
76 1 2.2035252018772731e+01 4.0479254645186842e+00 3.0298372218483447e+00 0 0 0
1079 1 2.3469950680377377e+01 2.7065849502860315e+00 4.4763814888990838e+00 0 0 0
1087 1 1.5347826178180768e+00 8.0168501829545633e+00 4.3625064107970211e+00 0 0 0
1089 1 4.4419349709137101e+00 5.3564914837771287e+00 4.2568931878797338e+00 0 0 0
86 1 2.9853787958799893e+00 6.6976931518219125e+00 2.9847480968521674e+00 0 0 0
94 1 8.2747739148517141e+00 6.8359878001015524e+00 3.0130242602491246e+00 0 0 0
1097 1 9.8093139283250146e+00 5.4447564752184974e+00 4.3172903685511876e+00 0 0 0
1103 1 1.2545561075231069e+01 8.0678269958053566e+00 4.2046447573509758e+00 0 0 0
102 1 1.3998766959097303e+01 6.6976540936497306e+00 2.9150536543828980e+00 0 0 0
1105 1 1.5283042132834998e+01 5.3710649662897350e+00 4.2150312796403249e+00 0 0 0
110 1 1.9323334061064877e+01 6.7817829717721763e+00 2.9646026310943343e+00 0 0 0
1113 1 2.0652882986674882e+01 5.3444440036298815e+00 4.4450433977985160e+00 0 0 0
118 1 2.4644832075675545e+01 6.7236084822988387e+00 2.9415181577379501e+00 0 0 0
1119 1 2.3213525386910781e+01 8.0904779030954224e+00 4.3492168826423461e+00 0 0 0
1081 1 2.6062304827920542e+01 5.2572504390259844e+00 4.4088263686679996e+00 -1 0 0
84 1 2.6254051934410333e-01 9.4881122870012362e+00 3.1195997315711659e+00 0 0 0
1129 1 4.3170522528148796e+00 1.0814203205257318e+01 4.3890516446488137e+00 0 0 0
1095 1 6.9049229852011731e+00 8.1039266388539897e+00 4.3734123874422703e+00 0 0 0
92 1 5.5467757163267892e+00 9.4012570530655655e+00 3.0130325148861203e+00 0 0 0
1137 1 9.6704523244101921e+00 1.0734997549393746e+01 4.4888765083607902e+00 0 0 0
100 1 1.1223405412322293e+01 9.4398695277009619e+00 3.0148691348587504e+00 0 0 0
1145 1 1.5114986471611537e+01 1.0611790826574877e+01 4.4092388696103617e+00 0 0 0
108 1 1.6526179539708103e+01 9.2929202213348088e+00 2.9233787585797142e+00 0 0 0
1111 1 1.7912464843628477e+01 8.0913712248234884e+00 4.4570082751449807e+00 0 0 0
1153 1 2.0566788830098844e+01 1.0898680823858545e+01 4.3377300836574255e+00 0 0 0
116 1 2.1895453813234283e+01 9.4628346685115847e+00 2.8457214813347811e+00 0 0 0
1120 1 2.4611185330197934e+01 9.2934420504185979e+00 5.5987337138028366e+00 0 0 0
1121 1 2.5959574659384806e+01 1.0723538835950373e+01 4.4465547747125287e+00 -1 0 0
1002 1 3.9704122232197536e-01 -4.0519955505371454e+00 5.7232898374085019e+00 0 0 0
1011 1 4.4173810840612102e+00 -2.7744310069368718e+00 7.1483865152790163e+00 0 0 0
1006 1 2.9350976076566595e+00 -4.1242948915811990e+00 8.4297307070229319e+00 0 0 0
1013 1 7.1246515326539637e+00 -5.4705378625978662e+00 7.0557654593602965e+00 0 0 0
1019 1 9.7299269872043794e+00 -2.7930818967418447e+00 6.9741312093381476e+00 0 0 0
1014 1 8.3941549412279475e+00 -4.0410611689776710e+00 8.3541772326808523e+00 0 0 0
1021 1 1.2508295076909393e+01 -5.4981017618685684e+00 7.0370025232456728e+00 0 0 0
1022 1 1.3986732045111319e+01 -4.1966960252181593e+00 8.3503521187840182e+00 0 0 0
1027 1 1.5187058160086037e+01 -2.8250322755461901e+00 7.1222400031901607e+00 0 0 0
1026 1 1.6505561305640700e+01 -4.1674319806769642e+00 5.7219275629975588e+00 0 0 0
1030 1 1.9500700984147361e+01 -4.1417967788579881e+00 8.3887098757649312e+00 0 0 0
1034 1 2.2198371611190325e+01 -3.9745981437277678e+00 5.8079604641727682e+00 0 0 0
1035 1 2.0687423921019178e+01 -2.6285295014489423e+00 6.8655960136259635e+00 0 0 0
1038 1 2.4890035308007835e+01 -4.1239505580608773e+00 8.4605178390150808e+00 0 0 0
1003 1 -9.8904299069850765e-01 -2.6942404864936300e+00 7.0939497002465988e+00 0 0 0
1045 1 1.6962877234607416e+00 3.9227758620893234e-02 7.1024722998070349e+00 0 0 0
1004 1 4.0409357027394238e-01 -1.3167350900415606e+00 8.4476270200302448e+00 0 0 0
1053 1 7.0157185809718356e+00 -5.4568750807708039e-02 7.0766099705387990e+00 0 0 0
1012 1 5.7833960968814493e+00 -1.4551572607102949e+00 8.5996128074895459e+00 0 0 0
1020 1 1.1130014761328283e+01 -1.5655132048473066e+00 8.4298946378693351e+00 0 0 0
1061 1 1.2387566352468106e+01 -4.8961524511035574e-02 7.2140992136422355e+00 0 0 0
1028 1 1.6623404134122641e+01 -1.3125245752693246e+00 8.3656232267354884e+00 0 0 0
1069 1 1.7953045643917459e+01 8.3888988011224692e-03 6.9761563899101429e+00 0 0 0
1032 1 1.9195621834794125e+01 -1.2967349556933867e+00 5.6751721622761302e+00 0 0 0
1074 1 2.1932287862626300e+01 1.3899393245774696e+00 5.6876827638179002e+00 0 0 0
1036 1 2.2069774296309308e+01 -1.3000022042597161e+00 8.3346454654991877e+00 0 0 0
1077 1 2.3412147559045962e+01 8.9198433494147439e-02 7.0497816060290157e+00 0 0 0
1040 1 2.4834595432038395e+01 -1.2873092005654638e+00 5.7549376671635937e+00 0 0 0
1044 1 3.9935950546264259e-01 4.1523573038960997e+00 8.4242781009707350e+00 0 0 0
1051 1 4.4522063884261858e+00 2.6554465524428479e+00 7.1026870435817520e+00 0 0 0
1046 1 3.0421265796314620e+00 1.3157664396228967e+00 8.4229342054956877e+00 0 0 0
1050 1 5.7380502253749190e+00 1.2910522818127494e+00 5.7149629555979917e+00 0 0 0
1052 1 5.6526054513987676e+00 4.1702145025400599e+00 8.4285410787080703e+00 0 0 0
1059 1 9.7866952592019256e+00 2.7115691787840026e+00 7.0161692006228762e+00 0 0 0
1054 1 8.4330082861018933e+00 1.2671931662935534e+00 8.4141426582755567e+00 0 0 0
1060 1 1.1208428894135183e+01 3.8716565375956975e+00 8.4249366596115696e+00 0 0 0
1064 1 1.3980106715132898e+01 4.0650695399773937e+00 5.6009827675846555e+00 0 0 0
1062 1 1.3897881119586895e+01 1.2245757319533850e+00 8.3139950910014164e+00 0 0 0
1066 1 1.6590159132061011e+01 1.3966015518439610e+00 5.6972504140276818e+00 0 0 0
1067 1 1.5174104622129663e+01 2.6810671763915193e+00 7.1202726251283783e+00 0 0 0
1068 1 1.6634880280557329e+01 4.0731257784425656e+00 8.4056832851900669e+00 0 0 0
1072 1 1.9125264989716698e+01 4.0635713940258373e+00 5.7351771313925575e+00 0 0 0
1070 1 1.9297074696515764e+01 1.4057409415433744e+00 8.4727102469336248e+00 0 0 0
1075 1 2.0525400209040981e+01 2.7559052584995394e+00 7.1152590623214866e+00 0 0 0
1076 1 2.2030445080982002e+01 4.0674558527304763e+00 8.5212697080516246e+00 0 0 0
1080 1 2.4680640709979333e+01 4.1023041987133322e+00 5.8817933555950388e+00 0 0 0
1078 1 2.4693215062754277e+01 1.4131714369037716e+00 8.5468455683492088e+00 0 0 0
1043 1 -1.0472125907753203e+00 2.8359529593848491e+00 7.2798687089073821e+00 0 0 0
1082 1 3.1323909191499977e-01 6.7078908691605124e+00 5.6718918477016551e+00 0 0 0
1085 1 1.7942494622704579e+00 5.4135507880721558e+00 7.0647239455624105e+00 0 0 0
1091 1 4.2841870455039492e+00 8.0972847501232970e+00 7.0662849733575852e+00 0 0 0
1086 1 2.9751757054466590e+00 6.8646797363762646e+00 8.5514625250072456e+00 0 0 0
1090 1 5.6913533015612803e+00 6.7339634528893901e+00 5.7497581981971395e+00 0 0 0
1093 1 6.9813594257922498e+00 5.4698515273357184e+00 7.0403981855661764e+00 0 0 0
1099 1 9.8206718111442015e+00 8.0370146535796572e+00 7.0410185180832228e+00 0 0 0
1094 1 8.4850825826304117e+00 6.6342961028498406e+00 8.3892502336243915e+00 0 0 0
1098 1 1.1150819401914411e+01 6.7294175210883180e+00 5.5808750287038720e+00 0 0 0
1101 1 1.2478451623050848e+01 5.2757994213758401e+00 6.9634223732949048e+00 0 0 0
1102 1 1.3973883922847035e+01 6.4979816399538493e+00 8.3249004203678041e+00 0 0 0
1106 1 1.6499160582273902e+01 6.6877421818162412e+00 5.6758580951896302e+00 0 0 0
1109 1 1.7979781896735556e+01 5.5726998151823528e+00 7.1426863192650289e+00 0 0 0
1110 1 1.9392428320013359e+01 6.8026573059369690e+00 8.5624631797094590e+00 0 0 0
1114 1 2.1920160550883519e+01 6.7340247720052435e+00 5.8820283795216701e+00 0 0 0
1117 1 2.3319969528482396e+01 5.4133789262147793e+00 7.2430118934072487e+00 0 0 0
1118 1 2.4691131300787777e+01 6.7668060323182395e+00 8.4024162123769806e+00 0 0 0
1083 1 -1.0580898599702948e+00 8.0836912391469813e+00 6.9286442259280099e+00 0 0 0
1125 1 1.6560857380369893e+00 1.0892852147483715e+01 7.0152790820216779e+00 0 0 0
1084 1 2.0532458069930792e-01 9.4882228876514390e+00 8.3775707366611893e+00 0 0 0
1088 1 2.9225970696793171e+00 9.4227711130585075e+00 5.6475727694920970e+00 0 0 0
1133 1 7.0618959508660657e+00 1.0843959143176447e+01 7.0128594901136170e+00 0 0 0
1092 1 5.6649879732395219e+00 9.4455255188745149e+00 8.4768572693588098e+00 0 0 0
1096 1 8.3026401065318449e+00 9.3098425711813562e+00 5.7893657970814436e+00 0 0 0
1141 1 1.2418026381497770e+01 1.0681634008023442e+01 7.2311490055045544e+00 0 0 0
1100 1 1.1122260331803151e+01 9.3555835933617004e+00 8.4386803989013313e+00 0 0 0
1104 1 1.3695600607459943e+01 9.2723118790395773e+00 5.8649347728065937e+00 0 0 0
1107 1 1.5221474390196390e+01 7.9940581839260281e+00 7.0099172555507341e+00 0 0 0
1108 1 1.6413497597769020e+01 9.3854533099439532e+00 8.5266142269388876e+00 0 0 0
1149 1 1.7818914763819848e+01 1.0773090489256996e+01 7.2262243834708917e+00 0 0 0
1112 1 1.9241374048507719e+01 9.4824885818185951e+00 5.7911715613152168e+00 0 0 0
1115 1 2.0661936298314718e+01 8.1685680640064824e+00 7.1123413366981572e+00 0 0 0
1116 1 2.1980812854182791e+01 9.5385615535226993e+00 8.4693274049854104e+00 0 0 0
1157 1 2.3255858835229340e+01 1.0755262943455980e+01 7.0580812095235608e+00 0 0 0
2007 1 1.6232479900608074e+00 -2.7930922144802084e+00 9.7503701458778114e+00 0 0 0
2002 1 2.9323698058437270e-01 -4.1526682344188579e+00 1.1129542995337992e+01 0 0 0
2120 1 2.4708375541175727e+01 9.4994860398236884e+00 1.1192404215471820e+01 0 0 0
2003 1 -9.9024298968166513e-01 -2.7227391975953465e+00 1.2450049654353794e+01 0 0 0
2011 1 4.3004910650058275e+00 -2.7557040361787859e+00 1.2416719449377613e+01 0 0 0
2015 1 7.1423924470277926e+00 -2.8614459196445825e+00 9.8503505992691220e+00 0 0 0
2010 1 5.6697982976472749e+00 -4.1872921932092995e+00 1.1141572351548128e+01 0 0 0
2017 1 9.8201222766564165e+00 -5.4643582508417046e+00 9.5335147191718139e+00 0 0 0
2023 1 1.2587747124505885e+01 -2.7893985435529847e+00 9.7647433473975749e+00 0 0 0
2018 1 1.1181805861482681e+01 -4.2439297939765428e+00 1.1191830825160434e+01 0 0 0
2025 1 1.5329391110209736e+01 -5.4704882254114926e+00 9.6809218934374677e+00 0 0 0
2026 1 1.6643153295468778e+01 -4.1460511025480837e+00 1.1123459487803792e+01 0 0 0
2031 1 1.7982424616259252e+01 -2.7860270788557355e+00 9.7020354457884732e+00 0 0 0
2034 1 2.2217888840032007e+01 -4.2245117705435389e+00 1.1152268398104056e+01 0 0 0
2039 1 2.3348614121287191e+01 -2.7072481184566226e+00 9.7197891558386509e+00 0 0 0
2042 1 3.7078355201023638e-01 1.3990510500498312e+00 1.1194166053762689e+01 0 0 0
2041 1 -9.9260099989308281e-01 1.0667254366720809e-01 9.7658478777777447e+00 0 0 0
2049 1 4.4422156986689680e+00 1.5460479365762579e-02 9.8987561337268826e+00 0 0 0
2008 1 3.0248467615022343e+00 -1.5350409320946157e+00 1.1085327325370484e+01 0 0 0
2057 1 9.8830552206877407e+00 -8.2348515424236851e-02 9.5934411006845650e+00 0 0 0
2016 1 8.3806986051220065e+00 -1.2302919779610550e+00 1.1047067610670778e+01 0 0 0
2024 1 1.3857847103639317e+01 -1.3614363559602973e+00 1.1184012777644330e+01 0 0 0
2065 1 1.5234148356292929e+01 -3.1628074239676403e-02 9.7870598237094839e+00 0 0 0
2066 1 1.6548663825874478e+01 1.4051605933244393e+00 1.1101548835857178e+01 0 0 0
2032 1 1.9465787200832203e+01 -1.4944885668407546e+00 1.1152931573034961e+01 0 0 0
2073 1 2.0716000828431973e+01 -3.7541713416568173e-02 9.8053504964215676e+00 0 0 0
2040 1 2.4826824256941023e+01 -1.4060771511391563e+00 1.1077252982700781e+01 0 0 0
2047 1 1.7286109637791240e+00 2.7034256449084961e+00 9.8317211906421917e+00 0 0 0
2043 1 -1.0452025879900804e+00 2.7151795492250534e+00 1.2494921469539564e+01 0 0 0
2048 1 3.0491758354661771e+00 4.0097117492961623e+00 1.1176608512812248e+01 0 0 0
2055 1 6.9963778058020232e+00 2.6775910140303711e+00 9.6151228547721832e+00 0 0 0
2050 1 5.7697137009499464e+00 1.4211788477872140e+00 1.1131447546483201e+01 0 0 0
2056 1 8.4278967901842794e+00 4.0139922284377416e+00 1.1175948764373118e+01 0 0 0
2001 1 -1.0488997107385387e+00 -5.4796119938116874e+00 9.7429234041492325e+00 0 0 0
2058 1 1.1174075224462214e+01 1.2958649656706307e+00 1.1077478396993291e+01 0 0 0
2064 1 1.3972921436264688e+01 3.9598187864446315e+00 1.1192592390077346e+01 0 0 0
2063 1 1.2657326580239245e+01 2.5496578549708890e+00 9.7736680002138563e+00 0 0 0
2071 1 1.7867753422748713e+01 2.7440809169917357e+00 9.8395522965635482e+00 0 0 0
2072 1 1.9293093422596904e+01 4.0306186132056760e+00 1.1204566680237535e+01 0 0 0
2074 1 2.2111072535732770e+01 1.4112819820508533e+00 1.1193306875276816e+01 0 0 0
2079 1 2.3479191439089043e+01 2.8654623451580838e+00 9.8934747702792674e+00 0 0 0
2080 1 2.4858945047003854e+01 4.1498129062184423e+00 1.1209081226407751e+01 0 0 0
2082 1 4.3193566047627746e-01 6.8317823330134875e+00 1.1181713941216506e+01 0 0 0
2081 1 -9.9233400863744103e-01 5.5770043228630684e+00 9.8254755348459408e+00 0 0 0
2089 1 4.2688248189726847e+00 5.4594150748315053e+00 9.9269897199637818e+00 0 0 0
2090 1 5.7010639062691455e+00 6.8465104712790605e+00 1.1047472750590254e+01 0 0 0
2097 1 9.8236240454860937e+00 5.2885491145609045e+00 9.7737442728704238e+00 0 0 0
2098 1 1.1255833130427016e+01 6.7044016636519510e+00 1.1084178088496280e+01 0 0 0
2105 1 1.5325827982848262e+01 5.2694998028368820e+00 9.8295389395051522e+00 0 0 0
2106 1 1.6415649018372328e+01 6.7920707002669447e+00 1.1174638554626281e+01 0 0 0
2111 1 1.7852094491496960e+01 8.0944872429585750e+00 9.8417320971976565e+00 0 0 0
2113 1 2.0797184631762640e+01 5.3924327920473987e+00 9.8913137428290163e+00 0 0 0
2114 1 2.2037663416609636e+01 6.8414761570717681e+00 1.1251083103554471e+01 0 0 0
2119 1 2.3430375151171493e+01 8.2121064386116913e+00 9.7487113787804365e+00 0 0 0
5 1 1.5953509998043880e+00 -5.4277791965944004e+00 1.7064568790198527e+00 0 0 0
2087 1 1.5828522947002701e+00 8.2295180137948627e+00 9.9230655085455197e+00 0 0 0
2129 1 4.2025905270491828e+00 1.0745111328269914e+01 9.8103031291739367e+00 0 0 0
2088 1 2.8768174952462182e+00 9.5258932521341233e+00 1.1310938492530624e+01 0 0 0
2095 1 7.1350001245504009e+00 8.0339588930689381e+00 9.6173473475918652e+00 0 0 0
2137 1 9.8023009677783044e+00 1.0843369685045831e+01 9.7358585735156851e+00 0 0 0
2096 1 8.5195915500551216e+00 9.3787692324351415e+00 1.1079154100083329e+01 0 0 0
2103 1 1.2714690867508207e+01 7.9845262467015630e+00 9.7132799034727153e+00 0 0 0
2104 1 1.3788186072220507e+01 9.4986694284111035e+00 1.1122178846640375e+01 0 0 0
2145 1 1.5092162276301663e+01 1.0907537612240176e+01 9.7600734776018001e+00 0 0 0
2112 1 1.9419908969050613e+01 9.4770931414603119e+00 1.1041448371748618e+01 0 0 0
2153 1 2.0791648810654355e+01 1.0975905385945602e+01 9.7217443039601701e+00 0 0 0
2019 1 9.7799688217915932e+00 -2.5968493082495692e+00 1.2409582436280521e+01 0 0 0
2027 1 1.5340430133668567e+01 -2.6674533000395155e+00 1.2420213350213986e+01 0 0 0
2035 1 2.0782229563952750e+01 -2.8879771098085354e+00 1.2494442416604251e+01 0 0 0
2045 1 1.6369674043344666e+00 -1.3572278382741154e-01 1.2441988264453355e+01 0 0 0
2069 1 1.7995721480800199e+01 -4.9447216654454913e-04 1.2420407412048903e+01 0 0 0
2077 1 2.3387321811980261e+01 -4.9490872221958394e-02 1.2484910894189310e+01 0 0 0
2051 1 4.3276516301525900e+00 2.7607203132892550e+00 1.2473329540760744e+01 0 0 0
2085 1 1.6937846623078803e+00 5.4322743492086403e+00 1.2409866080468838e+01 0 0 0
2093 1 7.1394449631289074e+00 5.5279285741609341e+00 1.2428687646808827e+01 0 0 0
2099 1 9.8768664991854251e+00 8.0124252490584205e+00 1.2491468543740018e+01 0 0 0
2109 1 1.7823452908761723e+01 5.3138697155197594e+00 1.2436035744816547e+01 0 0 0
2133 1 7.0603880050658523e+00 1.0745918530104873e+01 1.2470542408363945e+01 0 0 0
2149 1 1.7886234690180370e+01 1.0823240823375890e+01 1.2469800229908051e+01 0 0 0
2083 1 -1.0881949154668611e+00 8.0505667849286340e+00 1.2466156755017360e+01 0 0 0
119 1 2.3334578702704540e+01 8.0755387896017314e+00 -1.0037401078555916e+00 0 0 0
95 1 7.0125795623499592e+00 7.9879790510236983e+00 -1.0900039605392955e+00 0 0 0
97 1 9.9261098332343440e+00 5.3224676270940385e+00 -1.0525672280804486e+00 0 0 0
3007 1 1.5945109994757294e+00 -2.7414315654948078e+00 1.5256389116300960e+01 0 0 0
3001 1 -1.0138207857676782e+00 -5.3557141040699188e+00 1.5163259430365214e+01 0 0 0
2006 1 2.8955972899088360e+00 -4.1092276679517008e+00 1.3701048769437518e+01 0 0 0
3015 1 7.0696279791492760e+00 -2.7160266443309955e+00 1.5131111363386434e+01 0 0 0
2014 1 8.6058022539651766e+00 -3.9619229075388591e+00 1.3937275332103711e+01 0 0 0
4029 1 1.7923364480084263e+01 -5.3501959299771045e+00 2.3325219277690817e+01 0 0 0
4157 1 2.3419900228988226e+01 1.0712063127609937e+01 2.3217655025582452e+01 0 0 0
2022 1 1.3840041388094626e+01 -4.0652148852929475e+00 1.3715867460931845e+01 0 0 0
3023 1 1.2520422929794691e+01 -2.8504591283386529e+00 1.5224230503109718e+01 0 0 0
3037 1 2.3488225428503796e+01 -5.3906520122363872e+00 1.8035564379437783e+01 0 0 0
2030 1 1.9434350176491996e+01 -4.1532789164573352e+00 1.3973815876142147e+01 0 0 0
3031 1 1.7869201846061532e+01 -2.6782844713874074e+00 1.5274202309703794e+01 0 0 0
3029 1 1.7951060236917520e+01 -5.4419147303747479e+00 1.8037485902273342e+01 0 0 0
153 1 2.0653752056820135e+01 1.0847287757928134e+01 2.6024492859448021e+01 0 0 -1
2038 1 2.4747868270287661e+01 -3.9639973247973299e+00 1.3768986766707705e+01 0 0 0
3039 1 2.3349638012717360e+01 -2.7309830206016614e+00 1.5236578826127197e+01 0 0 0
3005 1 1.5163937894239088e+00 -5.5088252339134272e+00 1.7975082803060030e+01 0 0 0
2004 1 2.8576464030196336e-01 -1.2636298900374121e+00 1.3903769989885499e+01 0 0 0
3041 1 2.6084324683091960e+01 -2.5366128218194985e-03 1.5262769690304761e+01 -1 0 0
2046 1 3.0298852320970338e+00 1.2726006394633491e+00 1.3846154617467693e+01 0 0 0
3049 1 4.2945172144513322e+00 -1.6649849684056367e-01 1.5241796000524198e+01 0 0 0
2012 1 5.6600667368351472e+00 -1.3950531646542599e+00 1.3870100396314347e+01 0 0 0
2053 1 7.0645924210415965e+00 -1.5634562639128990e-02 1.2524942588851626e+01 0 0 0
2054 1 8.4638951138919261e+00 1.3308604831723077e+00 1.3937852132849319e+01 0 0 0
3057 1 9.7692737903293327e+00 -5.9611857272844009e-02 1.5234776165920069e+01 0 0 0
2020 1 1.1140422847831685e+01 -1.4068118123520126e+00 1.3780712739734858e+01 0 0 0
2062 1 1.3946625182535563e+01 1.1949058264330199e+00 1.4033661198464911e+01 0 0 0
2061 1 1.2557784730135619e+01 1.0017843557769729e-01 1.2548171073574043e+01 0 0 0
2028 1 1.6653492614379264e+01 -1.3204329614823400e+00 1.3926006164193442e+01 0 0 0
3065 1 1.5278305816793491e+01 -1.1425318089937601e-01 1.5333294865405222e+01 0 0 0
3033 1 2.0791869712767301e+01 -5.4641023502565815e+00 1.5303388161131201e+01 0 0 0
2070 1 1.9353547717210070e+01 1.3891688506375028e+00 1.3906961950782359e+01 0 0 0
2036 1 2.1989701217372001e+01 -1.4137817473637617e+00 1.3796571646956812e+01 0 0 0
3073 1 2.0696286730235009e+01 -3.2290231475750275e-02 1.5197347070550933e+01 0 0 0
3025 1 1.5214737157803766e+01 -5.4950996133973149e+00 1.5010480086094597e+01 0 0 0
2044 1 2.5490005255525749e-01 4.0110212573875295e+00 1.3738091823195065e+01 0 0 0
3047 1 1.6860049329724920e+00 2.6888875986463887e+00 1.5138193445492480e+01 0 0 0
4100 1 1.1072529308476055e+01 9.3130445304043938e+00 2.4745099495300565e+01 0 0 0
2052 1 5.6022992154179025e+00 4.0889112128167939e+00 1.3742337607516440e+01 0 0 0
3055 1 6.8853625877109943e+00 2.7713999990677043e+00 1.5076702326696322e+01 0 0 0
2060 1 1.1113385609032777e+01 4.0393974288005623e+00 1.3909204358676984e+01 0 0 0