LAMMPS data file via write_data, version 14 May 2016, timestep = 1000

2000 atoms
1 atom types

-1.0827462042562566e+00 2.6082746204256196e+01 xlo xhi
-2.1654924085125131e+00 5.2165492408512392e+01 ylo yhi
-1.0827462042562566e+00 2.6082746204256196e+01 zlo zhi

Masses

1 28.0855

Atoms # atomic

757 1 7.1582788358300531e-01 -1.8110544728827978e+00 -4.7815708007827473e-01 1 1 0
1610 1 -6.6756304118682153e-01 -1.0638106670647509e+00 9.6150059769890928e-01 0 0 1
1230 1 1.1065902093599988e+01 -1.6316019382202878e+00 6.8537798867683941e-01 0 0 1
328 1 1.1468710293568039e+01 -1.2824722465233311e+00 -8.6073003534534887e-01 0 1 0
527 1 1.4302746478011471e+01 -2.0458701159144752e-01 8.2054678706040940e-01 0 0 0
1962 1 1.7253245208128966e+01 -4.3607620732298247e-01 8.4127473196143432e-01 -1 1 0
430 1 1.6642077392224483e+01 -1.1254882469940666e+00 4.7270543230044093e-01 0 0 0
1993 1 2.0800795464552262e+01 -1.6177913479009560e+00 9.0421362809432604e-01 0 1 1
846 1 2.5393990014634959e+01 -2.3908226712098141e-01 5.0040479452950504e-01 -1 0 0
228 1 1.7173334689844641e+01 1.8688029140349109e+00 -6.5569556620273783e-01 0 1 0
1677 1 5.0782202287158074e-01 3.7689819235291449e+00 2.1112871886272196e-03 0 0 1
1523 1 4.8321771681371244e+00 3.3918433523545253e+00 7.9202135880925328e-01 -1 1 0
78 1 6.7553798721349727e+00 3.6460701261122548e+00 -6.3458455211970788e-01 0 0 0
427 1 1.5497698068460590e+01 2.9573713600108422e+00 -1.0240177737894283e+00 0 0 0
1362 1 1.4951408784633285e+01 3.2651450504005011e+00 8.6143214518125244e-01 0 0 1
819 1 1.7405206083302247e+01 4.0894253413449002e+00 8.6547615515826848e-01 0 0 1
497 1 1.9748710582875180e+01 2.1544454589635320e+00 -7.2746734816714531e-01 0 0 0
50 1 6.6679643701964342e-01 6.1492984496578389e+00 9.1203055861762983e-01 0 0 0
1940 1 -1.0737267974955955e+00 4.8689352678438897e+00 -7.6274052501494716e-01 1 1 1
1984 1 1.0562613095089386e+01 4.7512410484642045e+00 7.1664703989354717e-01 0 1 1
1146 1 2.5427454537234979e+01 5.4552289835677321e+00 4.9549355878834439e-01 0 1 0
91 1 -7.5013760365142323e-01 8.2168613437024742e+00 -3.2794154663489050e-01 0 0 0
476 1 1.7580232578999191e+00 7.1692449922369894e+00 -3.4121255479717955e-01 1 0 0
1711 1 2.3065401290216720e+00 7.9625954843802766e+00 -5.8691006261113954e-01 0 0 1
1236 1 3.1028406137078854e+00 6.2835327538180161e+00 9.0376087120238635e-01 1 0 0
502 1 1.6335491195518422e+01 7.2442091164594391e+00 -5.3318129085793919e-01 0 0 0
412 1 -3.9147258145223424e-01 8.3655849213845084e+00 8.6972447026011890e-01 0 0 0
1469 1 1.4318670422306949e+00 9.6497063417984812e+00 4.5337903019445269e-01 1 0 1
445 1 4.5577259749239749e+00 8.3627355627199229e+00 3.4736176303837712e-01 0 0 0
1631 1 9.1831470960355261e+00 8.7986525288217674e+00 -1.0545757676547017e-02 0 0 1
1301 1 9.6724371904768418e+00 9.9819616258593271e+00 2.9078941801541741e-01 0 0 1
1215 1 1.4073462374177440e+01 8.7925950786846521e+00 -8.7029158992096323e-01 0 0 1
55 1 1.4214327754202284e+01 1.0306162833670331e+01 5.5789111011079184e-01 0 0 0
424 1 2.5275650547991088e+01 8.8856112583916982e+00 2.1016740339304329e-01 0 0 0
1771 1 5.2201571088735743e-01 1.2142204123983081e+01 1.9031715024570653e-01 0 0 1
941 1 3.9732901005314245e+00 1.1119245631389727e+01 -3.4063272670423994e-01 0 0 0
1392 1 1.3054453928415608e+01 1.1847035833491786e+01 8.0458806960124973e-01 0 0 1
471 1 1.5952782988225341e+01 1.1642968872313961e+01 -3.1662051328123342e-01 0 0 0
1012 1 1.7370494006723888e+01 1.1185635841952909e+01 -7.7542303131236098e-02 0 0 1
71 1 2.0545241673972345e+01 1.1586729793112907e+01 -5.5258532836540120e-01 0 0 1
1361 1 2.3852283225308447e+01 1.1597799878472621e+01 4.3568728743795382e-01 0 0 0
984 1 -1.0669297654228735e+00 1.3813382731093586e+01 -9.6873456573190653e-01 1 0 1
1279 1 2.0894462064618140e+00 1.4389927788429883e+01 -1.0333066018381263e+00 0 0 1
1754 1 2.7287653906757092e+00 1.3801987536265335e+01 3.1351071164961430e-01 1 0 1
1724 1 8.7705253966526353e+00 1.2679486649163831e+01 -3.6765090870091977e-01 0 0 1
190 1 1.0549395635015530e+01 1.3032828890652924e+01 -3.5266801048603796e-01 1 0 0
129 1 1.4967102737741921e+01 1.4359984074022638e+01 -7.1423025956125086e-01 0 0 0
120 1 1.9783136317714124e+01 1.2625888597538450e+01 6.8798562996069124e-01 0 0 0
632 1 2.0832150797469421e+01 1.3075641858729790e+01 1.4098229471108570e-01 0 0 0
77 1 2.5479783297723657e+01 1.3329860350706182e+01 4.4265895088576296e-01 0 0 0
885 1 2.4784689857483492e+01 1.4077302852073386e+01 -9.7340355262588574e-01 -1 0 0
167 1 1.0104820869695428e+00 1.6160645145055309e+01 7.7159939975780045e-01 1 0 0
1835 1 9.1612201485097913e+00 1.4904334924229387e+01 -2.4201949891771685e-01 0 0 1
1385 1 1.2180748377327040e+01 1.4668075136109188e+01 -8.2156118339698125e-01 0 0 0
150 1 1.2617070061607729e+01 1.6579718503758592e+01 8.6678063762716073e-01 0 0 0
946 1 1.6444679421529884e+01 1.6379100830515373e+01 7.7376171322534137e-01 0 0 0
1701 1 2.1560876517255586e+01 1.5909493284930587e+01 -7.2341882434426863e-01 -1 0 1
1351 1 6.5662865103818149e+00 1.7977451771005772e+01 4.8687255867026824e-01 -1 0 1
892 1 1.8037056413478620e+01 1.7405882834693806e+01 9.5753671011017150e-01 0 0 0
1694 1 2.0438769312867834e+01 1.6662938533865887e+01 -5.8574883028741598e-01 -1 0 1
1700 1 2.3396169149643839e+01 1.6889245124296952e+01 -3.7970448581299587e-01 0 0 1
191 1 2.5762426259606936e+01 1.7791181617306496e+01 -2.2338519105954119e-01 0 0 0
246 1 2.5222271744826807e-01 1.9035580446838466e+01 5.8301088561963876e-01 0 0 0
76 1 1.1917309497398498e+00 1.9017240418360668e+01 -9.2333528154826050e-01 1 0 0
176 1 3.3208781582762623e+00 2.0651096879705982e+01 4.0563136422180710e-03 0 0 0
543 1 5.5933602476063422e+00 1.9281303874779205e+01 6.1634627697906763e-01 0 0 0
451 1 1.3382208552521361e+01 1.9420001783618165e+01 2.2952045374416313e-01 0 0 0
172 1 1.6766262646167547e+01 1.9290894325285198e+01 2.6912752591338601e-01 -1 0 0
1803 1 1.7660839458570020e+01 1.9739914320186372e+01 -8.2737268062646496e-01 -1 0 1
1693 1 2.1010438686875361e+01 2.0271529341630494e+01 -4.5350693059568780e-03 -1 0 1
1734 1 2.2518190622298892e+01 1.9164785120140120e+01 7.3430912331315168e-01 0 0 0
957 1 -6.7764416657692550e-01 2.1178969125037586e+01 -9.1530727165160597e-01 1 0 1
202 1 5.6425493705443479e+00 2.2119254691339236e+01 -4.5676891321560076e-01 0 0 0
1323 1 1.3542964993200064e+01 2.1592067739625570e+01 1.2606258650411284e-01 -1 0 1
1708 1 1.7932106354366052e+01 2.2808500303663219e+01 9.4913991968772016e-01 0 0 1
1349 1 2.2202057925984978e+01 2.1824963854290729e+01 -2.8931424666486366e-01 0 0 0
1825 1 2.4731580803910230e+01 2.2753184249592294e+01 7.1948677328308497e-01 -1 0 1
1662 1 -2.6270548799385518e-01 2.4767146388551865e+01 -8.0527248259622564e-01 0 0 1
101 1 1.1271472533037068e+01 2.4535807802481283e+01 4.8959061501764650e-01 0 0 0
1010 1 1.0116818181661019e+01 2.3075643245983663e+01 -8.0694973483873234e-01 0 0 1
860 1 1.2799504521250910e+01 2.3739456194115615e+01 5.6623572043473724e-01 0 0 0
677 1 1.7514914929189480e+01 2.4189571415204732e+01 -8.2272750821419904e-01 0 0 0
859 1 2.1517430473621104e+01 2.3287828989542625e+01 -1.5633029238446761e-01 0 0 0
621 1 2.3216507471854136e+01 2.4704541942812565e+01 4.1209634895759406e-01 0 0 0
289 1 5.6336898583998163e-01 -1.5739771464921826e+00 1.6379630802816898e+00 0 1 0
1122 1 9.1714404035453718e+00 -1.9772371224053906e+00 3.0488510939366051e+00 -1 1 0
382 1 8.1315518650212617e+00 -7.0858226794686918e-01 1.0244693479186771e+00 0 1 0
276 1 5.1376787461437559e+00 1.8635234527092903e+00 1.2220606438916137e+00 1 1 0
1539 1 9.2969454621450538e+00 1.5395662623297959e+00 2.6133344589850647e+00 1 1 1
1268 1 1.0147589399341301e+01 1.6718097912389411e+00 1.8959273213902736e+00 0 0 0
1648 1 1.6116713792829707e+01 1.2635160876445697e+00 2.2216943114572896e+00 -1 0 2
438 1 2.1785393219424030e+01 1.0773007713941563e+00 2.3658698030695615e+00 0 0 0
1256 1 2.1797668737737084e+01 1.8766832678632555e+00 1.2201968259683442e+00 -1 0 1
857 1 3.5576680135827705e+00 3.1650233655920457e+00 2.5439181844645731e+00 0 0 0
1660 1 1.1705422098093925e+01 2.8685135364884538e+00 2.2526212172602937e+00 0 0 1
359 1 1.3176245220093755e+01 2.3307744259273617e+00 1.6207020545654567e+00 1 1 0
118 1 1.7355293175091909e+01 2.4862249170171338e+00 1.6680673886300137e+00 0 0 0
194 1 2.0315998099947517e+01 2.5692989815094993e+00 1.8015671968237752e+00 0 0 0
1808 1 2.2056831986864463e+01 2.9308295336938630e+00 1.2630520652889634e+00 -1 0 1
372 1 1.1995450202847492e+01 6.1431758183389809e+00 1.4426849443598535e+00 0 1 0
370 1 1.1657857060756267e+01 4.3337506624413296e+00 1.3422720873819678e+00 0 1 0
1167 1 2.2375376536985872e+01 5.9151863001068712e+00 2.7812163887996664e+00 -1 1 0
1287 1 2.2823037873699075e+01 5.4262222875328092e+00 1.2332172106223676e+00 -1 0 1
1695 1 1.1247073506596955e+01 7.0604436806243172e+00 2.7892020987967023e+00 0 0 1
541 1 1.4503406490457058e+01 6.6753680845470811e+00 2.6639875319223707e+00 0 0 0
158 1 3.6063074833717668e-01 9.6967249526976094e+00 1.2421486026147175e+00 1 0 0
1191 1 4.3670933285142750e+00 9.0031860583831946e+00 2.7757774634200909e+00 1 1 0
1721 1 6.9614251576905293e+00 1.0238933745660391e+01 1.8751063014149323e+00 0 0 1
888 1 9.4404497427777141e+00 8.7817065799982874e+00 2.4590871179081244e+00 0 0 1
1245 1 1.4920016427354689e+01 9.6790569121881624e+00 2.3801600564869991e+00 0 0 0
495 1 1.7016470232784332e+01 9.1247680334053403e+00 2.2191737889620908e+00 0 0 0
1748 1 1.9385376526272513e+01 8.8786712166432764e+00 2.8915602883069425e+00 0 0 1
480 1 1.3925733217897569e+00 1.1481458370489349e+01 2.8722095522524196e+00 1 0 0
1312 1 1.7620443269518025e+00 1.1220561937151418e+01 1.8222503034159943e+00 1 0 0
1792 1 2.6625892123198525e+00 1.2342861266832497e+01 1.6546390488087004e+00 1 0 1
496 1 1.4319649391466363e+01 1.0887414418219285e+01 1.7228837186092485e+00 0 0 0
510 1 1.6667640026833915e+01 1.1732882571517049e+01 1.3239538713868251e+00 0 0 1
1359 1 4.0560647088578721e+00 1.2563059249599437e+01 1.8805090092634578e+00 1 0 1
1033 1 8.0302143616713355e+00 1.2482593727318882e+01 2.1270280097533312e+00 1 0 0
959 1 7.5198154098376619e+00 1.3100631684573735e+01 1.1101045507591905e+00 1 0 1
1840 1 1.4526617985638770e+01 1.3183889330473322e+01 2.1877312314285686e+00 0 0 1
504 1 1.8366533279874954e+01 1.3302448403227404e+01 1.1999693260449826e+00 -1 0 0
439 1 1.4806077387939756e+00 1.5234440049195445e+01 1.7890181282556912e+00 0 0 0
666 1 1.2415474820150180e+01 1.4987781066560323e+01 2.1726737697398004e+00 0 0 0
240 1 1.6010945069867969e+01 1.5562655768183967e+01 2.5936938014869648e+00 0 0 0
1374 1 1.5972371808420453e+01 1.4598771751442106e+01 1.3614620697783242e+00 0 0 1
503 1 1.8833466717076547e+01 1.6362966837589855e+01 1.0816740415945645e+00 0 0 0
625 1 2.5432596382541828e+01 1.4611875499244874e+01 1.8610880390782396e+00 0 0 0
936 1 2.3767979853714576e+00 1.8492209742622858e+01 1.5618507978810574e+00 0 0 0
1628 1 3.4519405271922539e+00 1.6938247238457379e+01 2.8461381385274320e+00 1 0 1
1712 1 2.3635947501731117e+01 1.7200099302443988e+01 1.5670892714801072e+00 0 0 1
1080 1 3.3104879037113877e+00 2.0725140622236037e+01 1.1665610297806484e+00 1 0 0
1846 1 5.7921092943638275e+00 1.9871192670918909e+01 2.4972569848542419e+00 0 0 1
229 1 1.4264438552819586e+01 2.0748686202663770e+01 2.2615141590738896e+00 0 0 0
845 1 1.6965034662508593e+01 2.0544927676456140e+01 2.5439785061073965e+00 -1 0 0
124 1 1.5794615855933197e+01 2.0143122248636750e+01 2.8867149047246463e+00 -1 0 0
1696 1 1.9921595704618788e+01 1.9702877851360501e+01 2.2701850624222311e+00 -1 0 1
1715 1 2.4427504694095706e+01 2.0007121828555547e+01 1.3802070695879358e+00 0 0 1
1379 1 2.9009628039460154e+00 2.0917266954015673e+01 2.9607727581482499e+00 0 0 0
944 1 1.7010266773192915e+00 2.2210987188624379e+01 1.2607244163614146e+00 1 0 1
222 1 8.5283862538168798e+00 2.2458239016673335e+01 2.2462743187499745e+00 0 0 0
219 1 9.9928859441965621e+00 2.0888532160558700e+01 1.7592595589597586e+00 1 0 0
1381 1 1.6595258126678662e+01 2.0875321012147491e+01 1.1579298486913443e+00 0 0 1
1884 1 2.0194601949856040e+01 2.2889475185217684e+01 1.6424732840883107e+00 -1 0 1
1011 1 6.3215891757515958e+00 2.4465422900125557e+01 2.5176866231086530e+00 0 0 0
1047 1 1.0441896798491946e+01 2.4942355865243300e+01 1.1966104422072521e+00 0 0 0
1870 1 1.5683071754501729e+01 2.4104978829533774e+01 2.0279818003647354e+00 0 0 1
1834 1 1.6940559166208160e+01 2.3732067476709990e+01 2.0791030955279668e+00 0 0 1
605 1 2.0205732363908869e+01 2.4734239559708040e+01 2.4898070990166885e+00 -1 0 0
409 1 1.0866890185127902e+00 -1.1566884091657446e+00 5.1028099455607769e+00 0 0 0
505 1 5.8730941482986694e+00 -1.2685926841630972e+00 3.4408161699332904e+00 1 0 0
773 1 8.6195908517435011e+00 -1.2784332246191090e+00 3.6827408740809600e+00 0 1 0
765 1 1.2428604908441532e+01 -1.0691524149073577e+00 3.7739656672429471e+00 0 1 0
1624 1 1.5433374428686690e+01 -1.6540984766669864e+00 3.5240727938790730e+00 0 0 1
513 1 1.7353491439446536e+01 -9.4332442462707511e-01 4.3184560483553227e+00 0 0 0
66 1 2.1989870980168881e+01 -1.1602255319489669e+00 3.3028954431864870e+00 0 0 0
437 1 2.4137905352102745e+01 -1.9800991281745717e+00 4.5657528078634302e+00 0 0 0
11 1 3.4840197418175847e+00 1.9359534196995061e+00 4.8066057804150368e+00 0 0 0
558 1 3.5061551872837597e+00 1.6393880950801312e+00 4.0781407334163591e+00 1 0 1
23 1 1.2568544116366452e+01 5.1592844630188404e-04 3.3639929596841593e+00 0 0 0
1699 1 1.7896537983388917e+01 2.0010834538696400e+00 3.2264637218195356e+00 0 0 1
1939 1 1.9865105983174644e+01 1.7695282637642049e+00 3.5083017813736670e+00 0 1 1
832 1 2.1814632438749715e+01 1.7886212796384009e+00 3.0970046864307381e+00 0 0 0
1347 1 9.3137421575992647e+00 3.1358422460727153e+00 4.5172148493554261e+00 0 0 0
1269 1 7.9107254864117005e+00 2.9427005145649874e+00 3.1021949672914695e+00 0 0 1
9 1 1.1314841046229931e+01 2.9896910586537984e+00 4.0129820450418423e+00 0 0 0
588 1 1.4400099379600398e+01 3.3947895498894254e+00 5.1081732475631529e+00 0 0 0
420 1 1.9148368275326323e+01 3.2783080848068717e+00 3.8007006037679916e+00 0 0 0
42 1 2.5429469599764513e+01 2.5489192169589905e+00 4.2748751888089833e+00 -1 0 0
741 1 2.5290932374702798e+01 3.7024430207037367e+00 3.6546484143695466e+00 0 1 0
1737 1 2.2795511158287778e+00 4.8108246785334305e+00 5.1847872134586783e+00 0 0 0
486 1 4.3371220351681163e+00 5.5111353311654101e+00 3.8774814636689747e+00 0 0 1
560 1 1.1619271575990098e+01 4.8223916460837497e+00 3.1529105254806313e+00 1 0 0
1937 1 1.1608775807718407e+01 5.3587579628751563e+00 4.4906755085850687e+00 0 1 0
1613 1 1.3150450666700412e+01 5.4007882631127986e+00 5.0408712060148666e+00 0 0 1
1240 1 1.5269265554533714e+01 5.1306287326454481e+00 3.9843602513801457e+00 0 0 1
1190 1 2.3240140030408607e+01 4.5101209227154690e+00 3.4485225869598208e+00 -1 1 0
1791 1 -4.6811133234357349e-01 7.0534481217864773e+00 3.1079678576467207e+00 1 0 0
1767 1 7.5352749189939072e-01 6.2768144727980832e+00 4.4581021232761939e+00 0 0 1
411 1 8.1003905916930954e+00 7.8652175189760758e+00 4.9126932531009340e+00 0 0 0
498 1 8.8553647607925718e+00 7.9363722604860740e+00 3.5116520801279330e+00 0 0 0
1276 1 1.2279329585288284e+01 6.3340702616669082e+00 4.3124516941771978e+00 1 0 0
144 1 1.7379602013883439e+01 8.2248602021663029e+00 3.8571805494219977e+00 0 0 0
1759 1 1.1714324765308872e+00 8.6901335678285125e+00 3.8423479757044046e+00 1 0 1
1408 1 6.2455968655616152e+00 9.8337042471269651e+00 4.4886246018084437e+00 0 0 1
97 1 8.8519251442962261e+00 9.9493621958126770e+00 3.2492528721666933e+00 1 0 -1
711 1 1.2330393367095361e+01 9.7827664708702891e+00 4.8088531667242993e+00 0 1 1
82 1 1.2589172546755499e+01 8.8602526205650527e+00 5.0911545186364364e+00 0 0 -1
8 1 2.6025762986626026e+00 1.1471586564481429e+01 4.5626820128675440e+00 0 0 0
1664 1 1.6179833859085413e+01 1.1695119474953705e+01 4.3961736928509048e+00 1 0 1
1194 1 1.7787592569298930e+01 1.1218880626966095e+01 3.3546831234075083e+00 0 1 0
1552 1 2.2470046244985859e+01 1.1748195360040553e+01 3.1845390120774977e+00 0 1 0
187 1 5.5960373103115058e-01 1.2583145361036365e+01 3.2886959769884831e+00 1 0 0
587 1 8.3723136924923196e+00 1.4534235971981452e+01 4.1397408675279159e+00 0 0 0
1327 1 1.1413118369919145e+01 1.3907506111505894e+01 3.8747060810038256e+00 0 0 1
468 1 1.2156727270350322e+01 1.2508084197344099e+01 3.6248006756999511e+00 0 0 0
92 1 1.6052814945922361e+01 1.3870078256745975e+01 4.5303460098125683e+00 -1 0 0
155 1 2.2751143676802201e+01 1.3035577213781833e+01 3.1507257756390268e+00 0 0 0
75 1 1.0465149431131628e+00 1.6468968612864696e+01 3.5579394407999843e+00 1 0 0
707 1 6.4828168136652744e+00 1.4666450410309819e+01 4.5084850556482952e+00 0 0 0
136 1 1.2476535071814677e+01 1.4589945528688261e+01 4.5030493798764342e+00 0 0 0
93 1 2.2894135227232333e+01 1.5462585798062300e+01 5.0569602423934841e+00 -1 0 0
421 1 2.9222621596791019e+00 1.6839211271255092e+01 4.2668257758230297e+00 0 0 0
1388 1 7.0575397976102607e+00 1.7856245047979524e+01 4.0096240591853505e+00 0 0 0
142 1 1.0262147598887497e+01 1.6982620415673953e+01 4.3925835455559810e+00 0 0 0
135 1 1.6723100749313783e+01 1.8416973502996296e+01 4.4997674957573999e+00 0 0 0
1860 1 1.8556754471796232e+01 1.8177344253228128e+01 4.3579727297576829e+00 0 0 1
1002 1 1.9841730954989050e+01 1.7122469052256477e+01 4.4807232499320824e+00 0 0 0
894 1 -8.3707929552734706e-01 1.9664732597380478e+01 3.7922032236278440e+00 0 0 0
1094 1 4.4972140443682580e+00 1.8946764032925621e+01 4.4667879359679672e+00 1 0 0
1057 1 1.5336459235043145e+01 2.0130988686121135e+01 4.2764876698597778e+00 0 0 0
927 1 1.3611946030599777e+01 1.8945693056012331e+01 3.9575849682959574e+00 -1 0 0
872 1 2.1129408861178675e+01 1.8884297284043914e+01 4.2564021794887106e+00 0 0 1
490 1 2.3234834371807459e+01 1.9458203212626980e+01 3.7569246849622848e+00 -1 0 0
1766 1 2.8007246120999132e+00 2.1978899694360617e+01 4.6913943080512128e+00 0 0 1
671 1 1.0917003095553525e+01 2.0946791299836121e+01 3.4090047134534158e+00 0 0 0
620 1 1.1752346630366505e+01 2.1739847484871724e+01 3.3704489770078623e+00 0 0 0
1692 1 1.3628465746670622e+01 2.2248573902117609e+01 4.5121267431102154e+00 0 0 1
1868 1 1.6548970184992964e+01 2.2783098086387422e+01 4.6360282238237529e+00 0 0 0
585 1 2.2209296909885033e+01 2.2348577872487891e+01 4.8634065177402981e+00 0 0 0
902 1 3.0793775926523748e+00 2.4850501531961843e+01 4.3673670618992011e+00 0 0 1
127 1 4.7106308265965771e+00 2.3362413351736961e+01 4.9555424135161941e+00 0 0 0
1777 1 7.0107072069656446e+00 2.3176587874678514e+01 3.5003017674249275e+00 0 0 1
1780 1 1.0481337381148672e+01 2.3153212290631817e+01 4.4402899005340979e+00 0 0 1
970 1 1.1103926742061988e+01 2.3948890738994987e+01 4.0756996112483481e+00 -1 0 0
122 1 2.3558260397839106e+01 2.3885369692886840e+01 4.2820740724425708e+00 -1 0 0
1867 1 2.3624248027252559e+01 2.4852266588716606e+01 4.6940673897513978e+00 0 0 1
81 1 -8.7081885017350968e-01 -1.5637230171969121e+00 7.1660112378986032e+00 0 0 0
958 1 6.3058214825004610e-01 -1.5388656355432315e-01 6.1913524512921558e+00 1 0 0
1270 1 1.0131627893023339e+01 -7.0333914185201329e-01 6.3809807219133452e+00 0 0 0
58 1 1.3159583753700309e+01 -1.0397645585890194e+00 5.3649773534420122e+00 0 0 0
79 1 2.0548766246575415e+01 -5.6962698771494835e-01 6.1792427834373331e+00 0 0 0
1602 1 2.4397219843726774e+01 -4.6875337870690253e-01 5.3540625695274322e+00 -1 0 1
1575 1 5.9013091403781170e-01 1.4078123132541609e+00 5.3605684585260613e+00 0 1 0
1965 1 8.3982015894544304e+00 1.2569270242479140e+00 6.9394883027382130e+00 0 1 1
1614 1 1.5330875741837289e+01 3.5554311017242651e-01 5.5535913287611054e+00 0 0 1
1583 1 1.8486769781681502e+01 1.2663916745734398e+00 5.3120317215065169e+00 0 1 1
1633 1 2.2361207856368800e+01 1.7408553202337793e+00 6.7759712843623241e+00 0 0 0
748 1 2.3322512010355435e+01 7.2550401423315880e-01 6.7296527199795806e+00 0 1 0
954 1 8.0222486704417961e-01 3.1235065597815392e+00 7.0763237690494032e+00 1 0 0
2000 1 2.2264981214861810e+00 2.1427985841107522e+00 5.7582826027788281e+00 1 1 1
1760 1 5.3332584124235831e+00 3.1182705295589166e+00 6.9352900704175902e+00 1 0 1
519 1 1.8176928519601155e+01 2.9982316540895022e+00 6.8908031944336425e+00 0 0 0
1525 1 2.5711001023754083e+01 2.2817266273476000e+00 5.9702716510719736e+00 -1 1 1
1967 1 4.6262684916856472e-01 4.6927703629343087e+00 6.6531053236271012e+00 0 1 1
1289 1 6.1218491049164028e+00 6.1196721015183559e+00 6.8527859086922707e+00 0 0 1
1280 1 1.4079644601742254e+01 4.3993959821626403e+00 5.3164025482911761e+00 0 0 0
1295 1 1.6267206532616836e+01 4.5523441569811727e+00 6.7563231811959490e+00 -1 0 0
518 1 1.8131988351376528e+01 6.0317284426937228e+00 6.3216615912948955e+00 0 0 0
727 1 4.9955243013565687e+00 7.6048623374922499e+00 7.1679643292122641e+00 0 1 0
1169 1 6.7456405955787275e+00 7.7901055131077248e+00 5.5515550522126311e+00 0 1 0
1801 1 8.2522820813874986e+00 8.0778807058961473e+00 6.3142360734403029e+00 0 0 1
54 1 1.5126568815748136e+01 8.0498819353664572e+00 5.3141599311935375e+00 0 0 0
115 1 1.5730886391378371e+01 6.9248809914955656e+00 6.6568809217410401e+00 0 0 0
65 1 1.9311733666344519e+01 8.2265843327780175e+00 6.3100080827389675e+00 0 0 0
878 1 4.9279184713481927e-01 8.4832323761291075e+00 5.8410206104670870e+00 1 0 0
1130 1 5.1052848245066338e+00 9.9611934814879657e+00 5.5219495655414343e+00 1 1 0
1818 1 3.3657270081046433e+00 9.8483197934288516e+00 5.6939197580441565e+00 0 0 0
477 1 6.1575420226250497e+00 9.1585003383258439e+00 5.8636934157567477e+00 1 0 0
478 1 1.6250254833045510e+01 1.0129947018566209e+01 6.3967465769058380e+00 0 0 0
1003 1 1.7397804168993297e+01 8.6017262649410906e+00 7.2187523297417719e+00 -1 0 0
1294 1 2.0359531814113744e+01 1.0193841871011776e+01 5.4766934851179405e+00 -1 0 0
901 1 2.2387243369009127e+01 8.9277263281575419e+00 5.5091094736275092e+00 0 0 1
1218 1 2.4541754068654846e+01 8.6004531498957295e+00 6.9458194716718031e+00 0 0 0
1809 1 -8.4196358604317101e-01 1.0617541644668275e+01 5.8203618828640655e+00 0 0 1
100 1 1.1973579675221004e+01 1.0796297966399434e+01 7.1415430496722720e+00 0 0 0
982 1 3.8056197530015585e+00 1.3473791449311666e+01 6.3676503560059823e+00 0 0 -1
157 1 8.7247787986085061e+00 1.3490879329219224e+01 5.6020964207299997e+00 1 0 0
53 1 1.0328813807031189e+01 1.3440171958646980e+01 5.8409108604174920e+00 0 0 0
1242 1 1.2246832564531550e+01 1.2673451495920714e+01 5.7480872910384004e+00 0 0 0
566 1 1.4207447689034190e+01 1.2564873964183878e+01 5.6702666645112307e+00 -1 0 0
908 1 1.6684793665544742e+01 1.4220235667610412e+01 6.3007455555566771e+00 0 0 0
1420 1 1.9585927718859963e+01 1.3196553552956397e+01 5.6270786699326711e+00 0 0 0
1261 1 1.8504933205916107e+01 1.4532588010494576e+01 5.3738256212363433e+00 0 0 1
833 1 2.1499739131448017e+01 1.3727885732897612e+01 6.5788785481911400e+00 0 0 0
148 1 6.6207555764400305e-01 1.5785806253806635e+01 6.4609901705231936e+00 1 0 0
1658 1 4.7154443395668402e+00 1.6300041640109566e+01 5.9660899662168623e+00 0 0 1
526 1 5.5215747418517118e+00 1.6035180011666757e+01 7.0319677079366318e+00 0 0 -1
1040 1 7.3146934595483533e+00 1.6613315566151936e+01 5.9770849780174276e+00 1 0 1
890 1 9.6447437425693874e+00 1.5413970128723939e+01 5.8550350402691009e+00 0 0 0
404 1 1.3361022375802737e+01 1.5979416542750025e+01 6.5134880283525218e+00 0 0 0
152 1 1.5269729785591833e+01 1.6078140530715558e+01 6.3976872841836432e+00 0 0 0
143 1 1.6425278285006335e+01 1.5502238088112222e+01 6.8035045145954518e+00 0 0 -1
1248 1 1.8732017280319617e+01 1.6637291693896909e+01 6.4774500205109966e+00 -1 0 0
1686 1 1.7827509571916632e+01 1.6126741801301883e+01 5.6011399608870498e+00 -1 0 0
900 1 2.0782430198537309e+01 1.5380777769480183e+01 6.4542582414123189e+00 0 0 0
875 1 2.2338243870539284e+01 1.5703912350026091e+01 7.1910176530124774e+00 0 0 1
1365 1 1.1199649305788151e+01 1.8454935838070174e+01 6.7432683189409328e+00 -1 0 0
1324 1 1.5397532735266694e+01 1.8314139203939721e+01 5.8918600020701959e+00 0 0 1
117 1 2.2167158899805479e+01 1.7493787001027957e+01 7.0826317029568617e+00 0 0 -1
161 1 2.3290455796513957e+01 1.6973903835766446e+01 5.5836718273792822e+00 -1 0 0
926 1 -5.6556980185046835e-01 2.0686626848976950e+01 5.2309954328603849e+00 0 0 0
1042 1 -1.0250118190053794e+00 1.9073030196270079e+01 6.9814552006690960e+00 0 0 0
580 1 1.1616446973747445e+00 1.8789572560096680e+01 5.7027489310826507e+00 0 0 0
1067 1 9.8815432848799354e+00 2.0719768087190044e+01 6.8341952318671000e+00 1 0 0
1325 1 9.7807574293032342e+00 1.9022049251837498e+01 5.3521735407999369e+00 0 0 1
871 1 1.3264234614987075e+01 2.0076256714898872e+01 6.6572693546214410e+00 0 0 0
1371 1 1.6812068180981306e+01 2.0639844439835151e+01 5.3886410915443985e+00 -1 0 0
1283 1 1.6661386504303429e+01 1.9992505322458609e+01 7.2231174063979999e+00 -1 0 0
1436 1 2.2145709999418905e+01 1.9407132622258402e+01 5.2764264832212495e+00 0 0 1
1743 1 2.5274413292623471e+01 2.0495632938097391e+01 6.6113462356542163e+00 -1 0 1
631 1 2.4636075921976083e+01 1.9752861148571476e+01 7.0913478060187476e+00 0 0 0
883 1 4.5581123778058714e+00 2.1545940309763541e+01 5.6494670665646263e+00 0 0 0
200 1 7.9075629891526615e+00 2.1105054239421253e+01 7.2506252626295140e+00 1 0 0
897 1 9.8777646595873119e+00 2.0923909667600093e+01 5.9975732874208472e+00 -1 0 0
270 1 2.5369918435104392e+01 2.2397345762455625e+01 6.2839675441940468e+00 -1 0 0
1852 1 -7.9021882837943969e-01 2.4180853018080835e+01 5.9632308288410680e+00 1 0 1
48 1 5.6712426226367523e+00 2.3347931066420234e+01 5.8687101931444738e+00 0 0 0
1423 1 8.2250654407944168e+00 2.3354378730227520e+01 7.0254568005475102e+00 0 0 0
1641 1 7.7729115579669346e+00 -1.6616746697948914e+00 8.1092840088680873e+00 0 0 0
345 1 1.6594015060781558e+01 -1.1140751049304513e-01 9.1521579013311154e+00 0 1 -1
402 1 2.4315562671554961e+01 -1.7906520948524089e+00 8.2575459963847990e+00 -1 0 0
15 1 2.4661735881921786e+01 -4.4699410595532241e-01 9.0198459570681333e+00 -1 0 -1
879 1 2.8084149641795331e-02 1.3404996844032353e+00 7.3370534684118960e+00 1 0 0
1328 1 1.2096941485015538e+00 1.1806253297149920e+00 8.9801657325727486e+00 0 0 0
1219 1 6.8098307080084499e+00 1.0058060838611027e+00 7.8463103376117624e+00 0 0 0
131 1 1.3722564154376887e+01 5.4205277228191961e-01 7.9471912731864238e+00 0 0 0
1656 1 3.2551505708514683e+00 2.7410574229984936e+00 7.9534144309826242e+00 0 0 0
407 1 1.0204317004158776e+01 3.6727740798538879e+00 7.8293641599197636e+00 0 0 0
1866 1 9.4914388760284094e+00 2.7239466772198364e+00 7.8026480084823904e+00 0 1 1
1753 1 2.3366209800708454e+01 2.8593668087928856e+00 9.2595905054644572e+00 0 0 1
1670 1 2.3409628660131869e+01 3.0878202178988121e+00 7.3692722201282654e+00 0 0 1
14 1 2.5185962393801983e+01 2.8548287654498523e+00 8.6106159368601052e+00 0 0 0
609 1 -1.8572656249925248e-01 5.4760077675434493e+00 9.2414620150009075e+00 0 0 0
1618 1 6.0166539177221945e-01 5.3942892453104685e+00 7.5059845379042001e+00 1 0 1
1321 1 3.1925124322818084e+00 5.3701999443665436e+00 8.4955904969729179e+00 0 0 0
381 1 7.3343287795049630e+00 4.6203938660071042e+00 7.4893499120198417e+00 0 1 0
804 1 1.1042832720100067e+01 6.1590589368582256e+00 8.7759086958166037e+00 0 0 0
877 1 1.2434671385738374e+01 6.0376124248918126e+00 8.1323616860436303e+00 0 0 0
1281 1 1.5740631338641961e+01 4.2785972547683091e+00 9.3095381929558378e+00 -1 0 0
831 1 1.8389764188719120e+01 4.8324355028809354e+00 9.0749831134988064e+00 0 0 0
1690 1 1.9800266419185728e+01 6.1175741631113896e+00 7.8341833741632119e+00 0 0 0
821 1 3.2052378119155560e+00 6.2933648139234251e+00 8.4912100896423972e+00 0 0 0
419 1 9.0326796505925806e+00 7.2521515932022842e+00 7.6550193574178467e+00 0 0 0
1617 1 7.3023286786824730e+00 7.8447942456297088e+00 8.4709801727495702e+00 0 0 0
826 1 1.3495602027825797e+01 6.9579690772912270e+00 7.4801033483419408e+00 0 0 0
1948 1 2.1487087354890441e+01 8.2056113121991139e+00 8.5118493413915708e+00 0 1 1
1661 1 2.5547643700492983e+01 8.2171293662381526e+00 8.8596114296112667e+00 -1 0 0
487 1 3.8673652025512704e+00 9.6805399727988526e+00 8.5801918153910517e+00 0 0 0
1227 1 5.5661868840900759e+00 8.5960267081771633e+00 8.1560201757451214e+00 0 0 0
539 1 2.3634913757957683e+01 9.1530985919557342e+00 9.2851106747311842e+00 -1 0 0
156 1 1.6108885146655409e+00 1.1027671880912997e+01 7.8219540725736696e+00 1 0 0
1335 1 4.8009190567246707e+00 1.2233821960040510e+01 7.4960815935344352e+00 0 0 0
990 1 5.3465946959455497e+00 1.1037737833875738e+01 8.4743028765752904e+00 1 0 0
46 1 7.3563301459450265e+00 1.2457756126945748e+01 8.1137507948054530e+00 0 0 0
123 1 1.3197350755593986e+01 1.1722846401727661e+01 8.7509303214388527e+00 -1 0 0
1605 1 1.7082613801824582e+01 1.1048126152553387e+01 8.1076900547999031e+00 -1 0 0
643 1 1.2180951717004687e+01 1.4180918424877445e+01 8.0079953969516282e+00 -1 0 0
447 1 1.5547542785024522e+01 1.2614017100912246e+01 9.3385252037466753e+00 0 0 0
988 1 1.7564522777162406e+01 1.4395075708421784e+01 8.8972681923638142e+00 -1 0 0
1395 1 9.2009838218527218e+00 1.4818296142898591e+01 8.1709534647952093e+00 0 0 1
782 1 1.0411702097971750e+01 1.5804710465296839e+01 8.8984382432806370e+00 0 1 0
1773 1 2.4849133016328162e+00 1.6727548773405008e+01 8.5271005793819228e+00 0 0 0
1717 1 6.9787761502031849e+00 1.8149349053980231e+01 9.0102033797860308e+00 0 0 1
180 1 7.5397020621156168e+00 1.8544299709359315e+01 8.0378806506347988e+00 0 0 0
532 1 2.5838455182831776e+01 1.7711032621016191e+01 8.2416721951361129e+00 -1 0 0
1056 1 -5.6609826399365060e-01 1.8959727790088234e+01 9.1740375124027569e+00 1 0 0
1107 1 5.0661577450016946e+00 2.0370297147077071e+01 7.6274714005495010e+00 1 0 0
616 1 1.0640992283233283e+01 2.0451672571591693e+01 7.5076035033508042e+00 0 0 0
1394 1 1.5060353228307539e+01 2.0073480162680053e+01 8.8328797272176374e+00 0 0 0
455 1 1.6251444382905209e+01 1.9156099547220055e+01 7.5865243199048411e+00 0 0 0
940 1 1.9719298143735269e+01 2.0290140167900720e+01 8.2716157755719948e+00 0 0 0
1344 1 1.9614566145577218e+01 1.9160971638715395e+01 8.7352162944888612e+00 0 0 0