
units 		metal
dimension	3
boundary	p	p	p
atom_style	atomic

#load structure
read_data output-1/lammps_data.0K.minimized
  orthogonal box = (-1.07737 -2.15475 -1.07737) to (26.0774 52.1547 26.0774)
  2 by 2 by 2 MPI processor grid
  reading atoms ...
  2000 atoms
  reading velocities ...
  2000 velocities

velocity all create ${T} 4928459 rot yes mom yes dist gaussian
velocity all create 500 4928459 rot yes mom yes dist gaussian

#SCALE FACTORS
variable sf equal (lx/${lxo}+ly/${lyo}+lz/${lzo})/3.0
variable sf equal (lx/27.1547488920413+ly/${lyo}+lz/${lzo})/3.0
variable sf equal (lx/27.1547488920413+ly/54.3094977840826+lz/${lzo})/3.0
variable sf equal (lx/27.1547488920413+ly/54.3094977840826+lz/27.1547488920413)/3.0

#load potential
pair_style sw
pair_coeff * * pot/Si.sw Si
Reading potential file pot/Si.sw with DATE: 2007-06-11
mass * 28.0855


reset_timestep 0
thermo ${thermo_save}
thermo 500
thermo_style custom time temp press v_sf
fix 1 all npt temp ${T} ${T} 0.1 aniso 0.0 0.0 1.0
fix 1 all npt temp 500 ${T} 0.1 aniso 0.0 0.0 1.0
fix 1 all npt temp 500 500 0.1 aniso 0.0 0.0 1.0

#EQ RUN
run ${N_EQ}
run 2500
Neighbor list info ...
  1 neighbor list requests
  update every 1 steps, delay 10 steps, check yes
  max neighbors/atom: 2000, page size: 100000
  master list distance cutoff = 5.77118
  ghost atom cutoff = 5.77118
  binsize = 2.88559 -> bins = 10 19 10
Memory usage per processor = 2.51802 Mbytes
Time Temp Press sf 
           0          500    3445.8722            1 
         0.5    443.29075   -1356.1911    1.0022148 
           1    499.80835   -714.23309    1.0021293 
         1.5    526.46607    1020.6347     1.001596 
           2    501.34508   -1201.7021    1.0022986 
         2.5    468.80247   -36.429028    1.0018938 
Loop time of 4.57935 on 8 procs for 2500 steps with 2000 atoms

Performance: 47.168 ns/day, 0.509 hours/ns, 545.929 timesteps/s
99.7% CPU use with 8 MPI tasks x no OpenMP threads

MPI task timing breakdown:
Section |  min time  |  avg time  |  max time  |%varavg| %total
---------------------------------------------------------------
Pair    | 2.4565     | 3.2708     | 4.114      |  29.1 | 71.43
Neigh   | 0          | 0          | 0          |   0.0 |  0.00
Comm    | 0.34307    | 1.1796     | 1.9879     |  48.1 | 25.76
Output  | 0.00019121 | 0.00021261 | 0.00030446 |   0.2 |  0.00
Modify  | 0.10056    | 0.10466    | 0.10827    |   0.8 |  2.29
Other   |            | 0.02402    |            |       |  0.52

Nlocal:    250 ave 323 max 197 min
Histogram: 1 1 2 0 2 0 0 1 0 1
Nghost:    1067 ave 1120 max 994 min
Histogram: 1 0 1 0 0 2 0 2 1 1
Neighs:    0 ave 0 max 0 min
Histogram: 8 0 0 0 0 0 0 0 0 0
FullNghs:  8500 ave 10982 max 6698 min
Histogram: 1 1 2 0 2 0 0 1 0 1

Total # of neighbors = 68000
Ave neighs/atom = 34
Neighbor list builds = 0
Dangerous builds = 0

#PROD RUN
reset_timestep 0
log output-1/prod.log.${T}  #save TD output to this file
log output-1/prod.log.500  
