LAMMPS data file via write_data, version 30 Jul 2016, timestep = 10000

2000 atoms
1 atom types

-1.0996756902546316e+00 2.6099675690254710e+01 xlo xhi
-2.1972938465199370e+00 5.2197293846520147e+01 ylo yhi
-1.1000069473189793e+00 2.6100006947318718e+01 zlo zhi

Masses

1 28.0855

Atoms # atomic

2 1 3.4150974907907461e-01 -7.8580912430609717e-01 1.2163180929716777e-01 0 0 0
5 1 1.5973760679740847e+00 -2.1095088978118239e+00 1.5380653226722747e+00 0 0 0
11 1 4.2925379290015027e+00 5.3884291929015404e-01 1.4391971006329678e+00 0 0 0
10 1 5.7464397963759568e+00 -7.1262047440834086e-01 7.9162909542430659e-02 0 0 0
18 1 1.1281221140764078e+01 -7.1695876287134297e-01 1.4499927644502031e-01 0 0 0
19 1 9.8870526354032666e+00 5.6249432710920155e-01 1.5813069900568668e+00 0 0 0
976 1 8.3827101993747810e+00 2.3688782426188059e+01 1.1200599624569744e+01 0 0 0
975 1 7.0770614364458133e+00 2.2305205536963360e+01 9.8198829290389238e+00 0 0 0
45 1 1.6741679493518680e+00 3.2365469816368453e+00 1.5932000700367812e+00 0 0 0
8 1 2.9517256193044705e+00 1.9388598529185010e+00 1.6357057446866197e-01 0 0 0
53 1 7.1193835875437905e+00 3.2958428220221849e+00 1.6598828180479477e+00 0 0 0
16 1 8.3400042563881094e+00 1.8441142704501212e+00 3.4324731999444702e-01 0 0 0
57 1 9.7110944690745118e+00 3.3394961124529399e+00 -1.0207374453303273e+00 0 0 0
968 1 3.0225375140596009e+00 2.3646909539075388e+01 1.1260124003569864e+01 0 0 0
42 1 3.3291026561817150e-01 4.7048922698791156e+00 2.4052075063229283e-01 0 0 0
51 1 4.2552526577306162e+00 5.9857314555175893e+00 1.5081014110661113e+00 0 0 0
50 1 5.7541672545170739e+00 4.7000543898279830e+00 1.9332395912058820e-01 0 0 0
55 1 7.0671919127015315e+00 6.1148200688386041e+00 -1.0790357874348024e+00 0 0 0
58 1 1.1111829796341024e+01 4.6885126936943493e+00 3.4280279193398089e-01 0 0 0
59 1 9.7570508142731391e+00 6.0327009767030937e+00 1.7413898876170006e+00 0 0 0
85 1 1.6321616790764844e+00 8.7097472705912082e+00 1.6356178323220600e+00 0 0 0
48 1 2.8916185385863673e+00 7.4043315414808770e+00 1.7420852220844263e-01 0 0 0
56 1 8.4159864138918223e+00 7.4023477740277066e+00 4.1427884967666095e-01 0 0 0
93 1 6.9575294949166491e+00 8.9062138316933286e+00 1.6194519496925532e+00 0 0 0
82 1 3.1720607817678870e-01 1.0061963574388669e+01 1.8882879803042152e-01 0 0 0
87 1 1.5908277824071488e+00 1.1669760700392136e+01 -1.0777941501414607e+00 0 0 0
90 1 5.6200972844610879e+00 1.0095143333665755e+01 1.7794384247480921e-01 0 0 0
91 1 4.2734867207607516e+00 1.1378776092650341e+01 1.6176850962151126e+00 0 0 0
88 1 2.9152161366073015e+00 1.2802589579665359e+01 3.2296525239881513e-01 0 0 0
96 1 8.3950280913714064e+00 1.2764427705606844e+01 2.6138541073243560e-01 0 0 0
98 1 1.1166417995729020e+01 1.0068171960683747e+01 1.3575448231597775e-01 0 0 0
99 1 9.7760003222337648e+00 1.1320637665700653e+01 1.5159782693019497e+00 0 0 0
967 1 1.7072886529232192e+00 2.2523769776424668e+01 9.7886566064256808e+00 0 0 0
125 1 1.3812165391031130e+00 1.4114430169681420e+01 1.7297749423461646e+00 0 0 0
122 1 2.3932518601735686e-01 1.5493643526577358e+01 2.9497718885234780e-01 0 0 0
130 1 5.6431934557216152e+00 1.5598913482030575e+01 3.0122056930848418e-01 0 0 0
133 1 7.0357589321446561e+00 1.4190866725864975e+01 1.5758415800149064e+00 0 0 0
21 1 1.2498864286741645e+01 -2.1832561360409670e+00 1.6219859591319192e+00 0 0 0
978 1 1.1143028437065837e+01 2.0886248235647439e+01 1.1131127515321522e+01 0 0 0
138 1 1.1187137635847641e+01 1.5462743500004624e+01 2.2338019441847368e-01 0 0 0
131 1 4.3988272429382578e+00 1.6766621144401554e+01 1.7258333914029866e+00 0 0 0
128 1 3.0360625660551355e+00 1.8210204753892491e+01 4.0046061161484725e-01 0 0 0
135 1 7.1153062209853513e+00 1.6935565405980011e+01 -1.0493591823391484e+00 0 0 0
136 1 8.4627901552968439e+00 1.8339438750534793e+01 4.1143045285377711e-01 0 0 0
139 1 9.8342047801616310e+00 1.6862024755160363e+01 1.5723314293023765e+00 0 0 0
162 1 3.6685601935786383e-01 2.0822088397643093e+01 3.4997840692572657e-01 0 0 0
165 1 1.7653992596984200e+00 1.9514256953968264e+01 1.8254389720064088e+00 0 0 0
1009 1 4.2477958083630236e+00 2.4994269165365047e+01 9.9112338679982681e+00 0 0 0
170 1 5.5872867108288817e+00 2.0868996651211035e+01 2.2052251699569503e-01 0 0 0
173 1 7.0140957908810755e+00 1.9634932330581314e+01 1.6631831465626870e+00 0 0 0
178 1 1.1137624917986781e+01 2.0938509288883434e+01 1.2012712357887345e-01 0 0 0
181 1 1.2355249081589234e+01 1.9535027973868562e+01 1.6368156894627450e+00 0 0 0
167 1 1.8125544821277897e+00 2.2299667079531801e+01 -1.0213395615559475e+00 0 0 0
205 1 1.7837947937245486e+00 2.4957514707333438e+01 1.6819643667110995e+00 0 0 0
171 1 4.3886946869352368e+00 2.2208378265182713e+01 1.6962955944199041e+00 0 0 0
168 1 3.1763964933157176e+00 2.3492804590901944e+01 3.4889849164063347e-01 0 0 0
176 1 8.3421306572042599e+00 2.3494855024568469e+01 3.5017232131472120e-01 0 0 0
179 1 9.7560223731090776e+00 2.2140488024516866e+01 1.6418594201929575e+00 0 0 0
977 1 9.7032915272384521e+00 1.9466921946257731e+01 9.6969118508236889e+00 0 0 0
401 1 -1.0812970683729155e+00 -2.1470607892243407e+00 4.1839617103012792e+00 0 0 0
407 1 1.8072376376677513e+00 4.0246963961603877e-01 4.2434559818654201e+00 0 0 0
6 1 3.1914355799535423e+00 -9.3216525779796933e-01 2.8891076434229679e+00 0 0 0
410 1 5.8352338525866587e+00 -8.6836491440043884e-01 5.7503944394434754e+00 0 0 0
14 1 8.5315200711425963e+00 -7.5291377828367945e-01 2.9679268221902291e+00 0 0 0
415 1 7.1947064430548426e+00 6.4497270869783740e-01 4.2795163281440098e+00 0 0 0
417 1 9.8013889514493613e+00 -2.1275725363248550e+00 4.3600391524168121e+00 0 0 0
418 1 1.1057109264357264e+01 -7.3817372829477135e-01 5.7089693213011339e+00 0 0 0
4 1 3.8849729573063740e-01 1.7535232335549598e+00 2.8747158262665646e+00 0 0 0
449 1 4.3380180534137933e+00 3.0855322346820309e+00 4.3708760628881933e+00 0 0 0
408 1 2.9945133335293646e+00 1.6975950832487463e+00 5.6527832626349053e+00 0 0 0
12 1 5.7518628405412882e+00 1.8920149171512177e+00 2.9200328538379736e+00 0 0 0
457 1 9.9720369839354763e+00 3.3236138179841452e+00 4.3414279166286436e+00 0 0 0
20 1 1.1254386928625209e+01 2.0560823902412659e+00 2.9481299562113543e+00 0 0 0
447 1 1.6813744189241011e+00 5.8584891948451485e+00 4.3493919940700367e+00 0 0 0
442 1 3.3442481805838997e-01 4.5759214236128178e+00 5.8071958937856332e+00 0 0 0
46 1 3.0922464211581744e+00 4.4835491590737089e+00 2.9682952360009107e+00 0 0 0
54 1 8.4061877903374640e+00 4.6345769976723075e+00 3.1057700383281865e+00 0 0 0
455 1 6.9645172485473328e+00 5.9589401630937502e+00 4.4970604788942454e+00 0 0 0
44 1 2.9439775639039500e-01 7.3229588460039121e+00 3.0170703296273649e+00 0 0 0
970 1 5.6405694488043920e+00 2.1008185677436874e+01 1.1236101357806405e+01 0 0 0
489 1 4.2687710647708830e+00 8.7728566450835732e+00 4.2706745408950182e+00 0 0 0
448 1 3.0456701027517434e+00 7.3640556625380960e+00 5.6382085810966203e+00 0 0 0
52 1 5.6403336991010073e+00 7.3314733994560637e+00 2.9542794712294960e+00 0 0 0
456 1 8.4736293672553771e+00 7.3770756139347693e+00 5.7131188793953092e+00 0 0 0
60 1 1.1061219172797703e+01 7.5001288979249505e+00 3.0278118420952733e+00 0 0 0
497 1 9.6911057567996206e+00 8.7654872749862172e+00 4.3472757868304051e+00 0 0 0
482 1 1.1684248960278509e-01 9.8973940692916607e+00 5.6272571545831624e+00 0 0 0
487 1 1.5100971092089801e+00 1.1410891093627905e+01 4.4318281967762125e+00 0 0 0
84 1 1.1057859394147185e-01 1.2763075401372223e+01 3.0963928802402876e+00 0 0 0
86 1 2.9961544931247142e+00 1.0157985188898271e+01 3.0638970654671907e+00 0 0 0
490 1 5.7274436247597107e+00 1.0118654513569638e+01 5.5733474956300419e+00 0 0 0
92 1 5.6521926440344155e+00 1.2718107637890725e+01 2.9020775870895870e+00 0 0 0
94 1 8.4232771506262818e+00 1.0110259538148123e+01 2.9870481867699503e+00 0 0 0
495 1 7.1163419561970880e+00 1.1467534117769844e+01 4.2640633401630312e+00 0 0 0
496 1 8.3710186412276197e+00 1.2831322159123003e+01 5.7780574408867311e+00 0 0 0
498 1 1.1194371873682403e+01 9.9773241756064124e+00 5.6161117661926925e+00 0 0 0
503 1 1.2369518146033807e+01 1.1348854432834820e+01 4.1971122221673820e+00 0 0 0
100 1 1.1130466864064026e+01 1.2743287802765845e+01 2.8984712443453358e+00 0 0 0
529 1 4.3841514037477980e+00 1.4041144247002840e+01 4.2437557299263000e+00 0 0 0
126 1 2.9737982057967400e+00 1.5416970722264164e+01 2.9802114782662228e+00 0 0 0
530 1 5.6920088051733098e+00 1.5442433109060705e+01 5.7018652620045476e+00 0 0 0
134 1 8.4529931872734654e+00 1.5499380612607727e+01 3.0411367698445444e+00 0 0 0
537 1 9.8763829941638281e+00 1.4134662212857251e+01 4.3784097082661768e+00 0 0 0
538 1 1.1015594925341793e+01 1.5511400261906616e+01 5.8213407048712256e+00 0 0 0
527 1 1.5707374034491375e+00 1.6857222088263136e+01 4.4108933142563416e+00 0 0 0
124 1 2.8609193327569349e-01 1.8207511949945093e+01 3.0952324661294170e+00 0 0 0
132 1 5.6632105780916007e+00 1.8229896212199655e+01 2.9502077509885547e+00 0 0 0
535 1 6.9688489239681299e+00 1.6848035248641125e+01 4.3388729020662371e+00 0 0 0
536 1 8.3146238844656200e+00 1.8222163678192132e+01 5.6927022303080292e+00 0 0 0
543 1 1.2417487366560389e+01 1.6927538896524350e+01 4.3730987036552085e+00 0 0 0
140 1 1.1015508677798335e+01 1.8246862357644375e+01 2.9669560231389704e+00 0 0 0
969 1 4.3213319383909585e+00 1.9509014833837650e+01 9.9803136311554184e+00 0 0 0
569 1 4.3106599965087868e+00 1.9469863044892286e+01 4.4989776185160402e+00 0 0 0
166 1 2.8969769817777160e+00 2.1037899982685911e+01 3.1383493516241137e+00 0 0 0
570 1 5.6837725462161321e+00 2.0933540346397045e+01 5.7922387542159601e+00 0 0 0
174 1 8.4478494910646251e+00 2.0917263825133876e+01 3.0425218110052912e+00 0 0 0
577 1 9.7389606126862169e+00 1.9605089511869391e+01 4.4384565581619277e+00 0 0 0
164 1 3.3500549004681091e-01 2.3567698221506262e+01 2.9251719400050797e+00 0 0 0
567 1 1.5288196164188799e+00 2.2442210692668368e+01 4.4492388352420225e+00 0 0 0
172 1 5.6636974396952171e+00 2.3423220162863778e+01 3.1878680809608113e+00 0 0 0
609 1 4.3367824522587712e+00 2.4912429451726201e+01 4.4349828342748889e+00 0 0 0
575 1 7.1428508306353535e+00 2.2224454560705890e+01 4.4504591042758559e+00 0 0 0
180 1 1.1049156849620546e+01 2.3581970275818598e+01 2.9687766782045495e+00 0 0 0
962 1 2.9633489640154020e-01 2.1078429209251190e+01 1.1050652079412057e+01 0 0 0
402 1 3.0807098774479269e-01 -7.8533084462613356e-01 5.5271196043379707e+00 0 0 0
411 1 4.4579128062903708e+00 4.9723772790269916e-01 7.1631515103816259e+00 0 0 0
406 1 3.0655258912684857e+00 -7.0158653712728336e-01 8.3888694106500452e+00 0 0 0
923 1 -1.0144159677796125e+00 1.6754000285921833e+01 1.2388082416844968e+01 0 0 0
414 1 8.3749132352705136e+00 -9.1190245013229787e-01 8.3811946283876360e+00 0 0 0
419 1 9.8213071611340048e+00 5.2188379760255588e-01 7.1641602072348700e+00 0 0 0
404 1 3.3334374488084251e-01 1.7872253989183897e+00 8.4951920712449294e+00 0 0 0
445 1 1.7463181427960883e+00 3.2354928175477058e+00 7.0913326073537757e+00 0 0 0
416 1 8.5578134580371330e+00 1.9176547146599914e+00 5.7527553192649981e+00 0 0 0
412 1 5.7530489430824687e+00 1.9533624967903709e+00 8.5039572156257375e+00 0 0 0
453 1 7.1102816528524304e+00 3.2561340666242806e+00 7.1295359249093426e+00 0 0 0
420 1 1.1284537082575991e+01 1.8372773787488823e+00 8.4030293488520176e+00 0 0 0
443 1 -1.0891548978753314e+00 5.9803388359491869e+00 7.0870259039259604e+00 0 0 0
451 1 4.4181442884264728e+00 5.9373604207986528e+00 7.0542270640030527e+00 0 0 0
446 1 3.1431899365656397e+00 4.6874016233334652e+00 8.4624564011280849e+00 0 0 0
450 1 5.6731038429760767e+00 4.4253438845760016e+00 5.8208079568701105e+00 0 0 0
454 1 8.4734242893789204e+00 4.5055710130999831e+00 8.3985879516368946e+00 0 0 0
458 1 1.1262211420374104e+01 4.6525489091734356e+00 5.7186808918700578e+00 0 0 0
459 1 9.7919698714634453e+00 5.8766819964258801e+00 7.0325721726021229e+00 0 0 0
444 1 2.1690120319239536e-01 7.2965943211780022e+00 8.4827199858488331e+00 0 0 0
485 1 1.4786061090080822e+00 8.5562781820318161e+00 7.0862014779123665e+00 0 0 0
452 1 5.7080232139398435e+00 7.2580578393664847e+00 8.3894178580123437e+00 0 0 0
493 1 6.9933942852616511e+00 8.6856404069871989e+00 6.9410673149899207e+00 0 0 0
460 1 1.0972721701773784e+01 7.3628418952362260e+00 8.4595798355798415e+00 0 0 0
484 1 3.0601832556223396e-01 1.2717396509397139e+01 8.5219282110700014e+00 0 0 0
488 1 2.9394514651627981e+00 1.2770895084758951e+01 5.8024622985103349e+00 0 0 0
486 1 2.9198424092030093e+00 9.9026086341579767e+00 8.4366200228759034e+00 0 0 0
491 1 4.3223672085241356e+00 1.1268377377242079e+01 7.0853009100675646e+00 0 0 0
492 1 5.6931788810411055e+00 1.2605478107745189e+01 8.3159052737429437e+00 0 0 0
494 1 8.4428744952000550e+00 1.0059539639624489e+01 8.4333051961955530e+00 0 0 0
499 1 9.7247993213975299e+00 1.1343514043151643e+01 7.0676833295548036e+00 0 0 0
500 1 1.1176238292079328e+01 1.2709815426743702e+01 8.3701218279844323e+00 0 0 0
522 1 1.7458178937071778e-01 1.5581705063642403e+01 5.7667965563071037e+00 0 0 0
525 1 1.5170015000097177e+00 1.4240877249500315e+01 7.0483664163988813e+00 0 0 0
526 1 2.8881862545241530e+00 1.5444278695893203e+01 8.5207118858521600e+00 0 0 0
533 1 6.9841008688092980e+00 1.4157574171206338e+01 7.1585726568591763e+00 0 0 0
534 1 8.4456465314717608e+00 1.5547386688334115e+01 8.3708058811306802e+00 0 0 0
524 1 2.9753768733483499e-01 1.8228641583514317e+01 8.4266379044257764e+00 0 0 0
528 1 2.9344043538226421e+00 1.8113209075738428e+01 5.8486760543256162e+00 0 0 0
531 1 4.2375670802375245e+00 1.6643818791783076e+01 7.0755970159575394e+00 0 0 0
532 1 5.4429720153922769e+00 1.8082475729901088e+01 8.4253922091130562e+00 0 0 0
539 1 9.7544016210800528e+00 1.7013343722781858e+01 7.1451148365296930e+00 0 0 0
540 1 1.1155727900408408e+01 1.8382028989566724e+01 8.4552820494727516e+00 0 0 0
562 1 3.3513509988145418e-01 2.0934871049738668e+01 5.7085053520194897e+00 0 0 0
565 1 1.6039492063866381e+00 1.9686012278192020e+01 7.1480935779842909e+00 0 0 0
566 1 3.0664406043523762e+00 2.0971402374396050e+01 8.5516272385863310e+00 0 0 0
573 1 6.8161883431159387e+00 1.9537061336614059e+01 7.1756539945520679e+00 0 0 0
574 1 8.3095342860340793e+00 2.0876442769695586e+01 8.3835780332584093e+00 0 0 0
578 1 1.1070320475540949e+01 2.1023593228239125e+01 5.6293294590394662e+00 0 0 0
564 1 1.9134601313456967e-01 2.3768832212590592e+01 8.3689418287344406e+00 0 0 0
921 1 -1.0352717367192206e+00 1.4095134686479195e+01 9.8001750569791106e+00 0 0 0
568 1 2.9414479540047171e+00 2.3629173025884015e+01 5.8473714992693830e+00 0 0 0
571 1 4.4347319637692957e+00 2.2231121345269539e+01 7.1098498686680234e+00 0 0 0
572 1 5.6672771776541477e+00 2.3615130849431811e+01 8.5375960573026575e+00 0 0 0
576 1 8.4458985536247493e+00 2.3697140780049121e+01 5.8292313082411091e+00 0 0 0
579 1 9.6567690680722507e+00 2.2190489309364029e+01 7.0304280927023708e+00 0 0 0
580 1 1.1099158304936815e+01 2.3636174319790999e+01 8.3983109289066569e+00 0 0 0
802 1 2.1773114783234671e-01 -7.8677296248008988e-01 1.1041174058196491e+01 0 0 0
807 1 1.6373981663344024e+00 5.0334435365383090e-01 9.8091733711654374e+00 0 0 0
936 1 8.2261913222460166e+00 1.8134667971513295e+01 1.1066485544552666e+01 0 0 0
621 1 1.2431120044165317e+01 2.4959705353474494e+01 7.1311476326208911e+00 0 0 0
810 1 5.6792213588636793e+00 -8.9713747122059240e-01 1.1151026038537003e+01 0 0 0
815 1 6.9935338290475872e+00 5.7003462436897889e-01 9.8556330579815601e+00 0 0 0
821 1 1.2481404379603260e+01 -2.1961609990201443e+00 1.2453274392099532e+01 0 0 0
819 1 9.7808853794791037e+00 4.9802448876533090e-01 1.2471246073497452e+01 0 0 0
935 1 6.9617026923042999e+00 1.6751393910032647e+01 9.7117875692586111e+00 0 0 0
818 1 1.1101426023639304e+01 -7.6857152549259244e-01 1.1092620980819838e+01 0 0 0
841 1 -1.0339706058999516e+00 3.3500233347752282e+00 9.8412370888184846e+00 0 0 0
808 1 3.0703748927231116e+00 1.9011308975811048e+00 1.1023965680122499e+01 0 0 0
849 1 4.5006693218843878e+00 3.2828243537605903e+00 9.7977961473633250e+00 0 0 0
853 1 7.0082337575811220e+00 3.2951753916036193e+00 1.2487945449792026e+01 0 0 0
816 1 8.3691315819377810e+00 1.8825182742492030e+00 1.1207592232434260e+01 0 0 0
928 1 2.9399876023484861e+00 1.8218054325528147e+01 1.1283904324316842e+01 0 0 0
857 1 9.7360589090385812e+00 3.1598665471634888e+00 9.7058511937879910e+00 0 0 0
847 1 1.8231644865677588e+00 6.0766365350350604e+00 9.7432783720327780e+00 0 0 0
842 1 5.7820350862394809e-01 4.6066249931328045e+00 1.1111712595322350e+01 0 0 0
851 1 4.2258777621775705e+00 6.0984266608517022e+00 1.2415327818652695e+01 0 0 0
850 1 5.7299574913909774e+00 4.6947074672729148e+00 1.1145593513226427e+01 0 0 0
855 1 7.2042367699622005e+00 5.9624288624205821e+00 9.7025650477494771e+00 0 0 0
858 1 1.1083500128649181e+01 4.7187789925475920e+00 1.1075278828514312e+01 0 0 0
405 1 1.6549372809646132e+00 -2.0939615970090131e+00 6.8243166709319807e+00 0 0 0
927 1 1.6874256598490467e+00 1.6844177747798685e+01 9.8289568611824727e+00 0 0 0
848 1 3.0536145366405671e+00 7.4596886260092248e+00 1.1084781411116364e+01 0 0 0
889 1 4.4323848812521405e+00 8.5952190872806309e+00 9.7406061562830217e+00 0 0 0
893 1 7.1363929598265337e+00 8.6933795536952747e+00 1.2426669998094715e+01 0 0 0
856 1 8.4506798150494120e+00 7.3263417607222259e+00 1.1114751417958287e+01 0 0 0
897 1 9.6847080531248739e+00 8.6681191729503784e+00 9.8373541785209593e+00 0 0 0
887 1 1.5811905398734871e+00 1.1148388842175519e+01 9.8877424991503915e+00 0 0 0
882 1 5.5116549420355820e-02 1.0050869925964726e+01 1.1235147025594076e+01 0 0 0
888 1 2.9729910155799226e+00 1.2659528695135686e+01 1.1124577786282181e+01 0 0 0
891 1 4.2776577738236892e+00 1.1270552675026371e+01 1.2387844708620865e+01 0 0 0
896 1 8.3994207505736682e+00 1.2744246689156510e+01 1.1133189494243034e+01 0 0 0
895 1 7.1493519956602114e+00 1.1400533293074732e+01 9.7273435297334991e+00 0 0 0
890 1 5.7826201231783534e+00 9.9972110616568877e+00 1.1030574860350260e+01 0 0 0
805 1 1.5663377161450156e+00 -2.1530835103367281e+00 1.2346682617918880e+01 0 0 0
898 1 1.1209338643636299e+01 1.0018198583174641e+01 1.1107731286278014e+01 0 0 0
925 1 1.6859153575549488e+00 1.4176501640397365e+01 1.2389436212901987e+01 0 0 0
922 1 2.9853698060684675e-01 1.5435724921966347e+01 1.1048362768196350e+01 0 0 0
929 1 4.3125513016402977e+00 1.4014686466168772e+01 9.7578221068732809e+00 0 0 0
930 1 5.6730389397036269e+00 1.5333760299421659e+01 1.1061112508809249e+01 0 0 0
937 1 9.8839979464765957e+00 1.4150569586125393e+01 9.7792038437082400e+00 0 0 0
938 1 1.1122340804262723e+01 1.5537826795561848e+01 1.1180023859468282e+01 0 0 0
43 1 -9.8670302265093213e-01 6.0439267178620000e+00 1.5436542343012198e+00 0 0 0
101 1 1.2497861699965565e+01 8.7290526870468756e+00 1.5783920418133768e+00 0 0 0
83 1 -1.0493555894581519e+00 1.1404811998946021e+01 1.6352996036679204e+00 0 0 0
963 1 -1.0211553920913907e+00 2.2363125722629622e+01 1.2469891098857802e+01 0 0 0
163 1 -1.0158488306912510e+00 2.2174253350908323e+01 1.6094253024286709e+00 0 0 0
441 1 -1.0383251911856242e+00 3.1115903882597085e+00 4.3033784610481121e+00 0 0 0
463 1 1.2481632221065214e+01 6.0579595556508270e+00 4.2520854849441143e+00 0 0 0
403 1 -9.9519833567845950e-01 5.8790915913809361e-01 6.9311737468539505e+00 0 0 0
501 1 1.2482574506239024e+01 8.6370541592891499e+00 7.0063353950599527e+00 0 0 0
983 1 1.2476671491730961e+01 2.2325209211043965e+01 9.7809632641068891e+00 0 0 0
961 1 -1.0735321664854141e+00 1.9480204312813022e+01 9.8315480465768381e+00 0 0 0
581 1 1.2477129649363858e+01 1.9581597842522807e+01 6.9791678156254218e+00 0 0 0
563 1 -1.0190656242385785e+00 2.2222766040603272e+01 7.1346318339991459e+00 0 0 0
863 1 1.2441484097514776e+01 5.9884715536665745e+00 9.6562794498185376e+00 0 0 0
843 1 -1.0263163577493692e+00 5.9110196767893193e+00 1.2367610244043586e+01 0 0 0
209 1 4.5453103996835180e+00 2.4890093056519571e+01 -1.0793586422140176e+00 0 0 0
213 1 6.8997086897577411e+00 2.4822858890043626e+01 1.6584430429215447e+00 0 0 0
217 1 9.7008727104274612e+00 2.4916407570190568e+01 -9.1603558002338459e-01 0 0 0
13 1 7.0804329414274747e+00 -2.1067023769685846e+00 1.7110092634768366e+00 0 0 0
617 1 9.6905483290311238e+00 2.4896808138275780e+01 4.2321866671646147e+00 0 0 0
613 1 6.9135891230773669e+00 2.4939085336149112e+01 7.1113965323026012e+00 0 0 0
811 1 4.3971805013620857e+00 4.4247549684098253e-01 1.2480495200338849e+01 0 0 0
845 1 1.8975867702927127e+00 3.2536700097061946e+00 1.2466094486796841e+01 0 0 0
175 1 6.9784419857551718e+00 2.2196770364440425e+01 -1.0717575206773802e+00 0 0 0
933 1 7.0921644015601490e+00 1.4029628254340185e+01 1.2458712847023577e+01 0 0 0
931 1 4.3710918501863141e+00 1.6701213434473829e+01 1.2393109728977263e+01 0 0 0
939 1 9.6745941467908665e+00 1.6879480870252515e+01 1.2445164022125914e+01 0 0 0
965 1 1.3983108571320977e+00 1.9608212353442546e+01 1.2404656167295544e+01 0 0 0
979 1 9.7621716772902687e+00 2.2229351913150047e+01 1.2400695869006041e+01 0 0 0
97 1 9.7829346692413477e+00 8.5705871452545974e+00 -1.0487266050114883e+00 0 0 0
127 1 1.6007800615288779e+00 1.6847142007507138e+01 -1.0367821750653476e+00 0 0 0
1207 1 1.6427636355780453e+00 6.0444944076765905e-01 1.5164502624159200e+01 0 0 0
1209 1 4.3371205852777486e+00 -2.1561182809481432e+00 1.5249348582686236e+01 0 0 0
806 1 2.9107800353981821e+00 -8.3140298039252425e-01 1.3840745311444790e+01 0 0 0
1813 1 7.0432810976409677e+00 2.4990977637191619e+01 2.3415788556972998e+01 0 0 0
814 1 8.4370410419904882e+00 -9.7678664299142359e-01 1.3830322480311144e+01 0 0 0
1215 1 7.1006030935158453e+00 5.3095497567676908e-01 1.5229705283933340e+01 0 0 0
804 1 2.3379946062388268e-01 1.9386581806182051e+00 1.3810913652755847e+01 0 0 0
1805 1 1.6981644034619205e+00 2.4997333129487942e+01 2.3398102797983050e+01 0 0 0
1249 1 4.3637780535246176e+00 3.3288708625083387e+00 1.5331425926694410e+01 0 0 0
812 1 5.6790895846008507e+00 1.8415868317328288e+00 1.3831259739934241e+01 0 0 0
1257 1 9.9099962119520395e+00 3.2270536850373110e+00 1.5117947504313276e+01 0 0 0
820 1 1.1212475317506795e+01 1.8781084886897368e+00 1.3714934026783720e+01 0 0 0
1247 1 1.6443855172388742e+00 5.7998465164275821e+00 1.5320771818216899e+01 0 0 0
846 1 3.0898719712543521e+00 4.6547318506198776e+00 1.3793595501012348e+01 0 0 0
854 1 8.4485435290251800e+00 4.6617528741143284e+00 1.3799418713258603e+01 0 0 0
1255 1 7.0643745673912441e+00 6.0667145091527264e+00 1.5219354088666256e+01 0 0 0
1780 1 1.1058105445252311e+01 2.3706627251589314e+01 2.4742230928230825e+01 0 0 0
859 1 9.7737849077002448e+00 6.0922637253071930e+00 1.2577895169073873e+01 0 0 0
844 1 3.3340714214287259e-01 7.2097652691009202e+00 1.3838434246857499e+01 0 0 0
1281 1 -1.0031063112802003e+00 8.6724009308363996e+00 1.5216623865620166e+01 0 0 0
852 1 5.7001413810472625e+00 7.3611051062158861e+00 1.3797564588888928e+01 0 0 0
1289 1 4.3438666464814633e+00 8.5243664765618572e+00 1.5282016754318567e+01 0 0 0
860 1 1.1180667605008427e+01 7.4168405641771749e+00 1.3865828748439970e+01 0 0 0
1297 1 9.8253037842675184e+00 8.7059620191583758e+00 1.5218793810698733e+01 0 0 0
1287 1 1.6288472427746417e+00 1.1361856226081539e+01 1.5071982925272218e+01 0 0 0
884 1 3.4835194866465846e-01 1.2738817408543015e+01 1.3757239246675043e+01 0 0 0
886 1 2.9781559974106750e+00 9.9543131310909931e+00 1.3887252081486988e+01 0 0 0
892 1 5.6024766990247521e+00 1.2710835935838421e+01 1.3792586357700774e+01 0 0 0
1295 1 6.9672602417798704e+00 1.1510765640222322e+01 1.5257869068562522e+01 0 0 0
894 1 8.4248397210845454e+00 9.9908154532003266e+00 1.3865157150515298e+01 0 0 0
1779 1 9.7909226636111253e+00 2.2347647271775308e+01 2.3447228189696972e+01 0 0 0
900 1 1.1236909990511961e+01 1.2787281403290855e+01 1.3900470686634954e+01 0 0 0
899 1 9.9098966545565208e+00 1.1443602734996922e+01 1.2550891961360984e+01 0 0 0
1617 1 1.0022971181160253e+01 -2.1206455869864556e+00 2.0491059826067250e+01 0 0 0
1329 1 4.4243451034060941e+00 1.4172669383008312e+01 1.5189973764666854e+01 0 0 0
926 1 2.9819033709562097e+00 1.5547373772972229e+01 1.3834550430008631e+01 0 0 0
934 1 8.3220130947308295e+00 1.5383063855936776e+01 1.3804061580294386e+01 0 0 0
9 1 4.3640507966771764e+00 -2.0570124900254427e+00 2.5870243390879097e+01 0 0 -1
1337 1 9.7671860185262016e+00 1.4095507436906892e+01 1.5176720448088895e+01 0 0 0
1327 1 1.6752653466620036e+00 1.6879029731347551e+01 1.5210741674394521e+01 0 0 0
924 1 2.5377975927406893e-01 1.8207220034497965e+01 1.3779982162437577e+01 0 0 0
1601 1 -1.0008718908164911e+00 -2.1608299530260950e+00 2.0717588786316817e+01 0 0 0
932 1 5.5801138195496440e+00 1.8023262575193534e+01 1.3862068954235488e+01 0 0 0
1335 1 6.9758401293131449e+00 1.6640534675400165e+01 1.5175443397201844e+01 0 0 0
940 1 1.1026562687108926e+01 1.8218090029742193e+01 1.3828037360311377e+01 0 0 0
1613 1 7.2106532300423822e+00 -2.0255224846751361e+00 2.3294310189228632e+01 0 0 0
1361 1 -1.0248451631391922e+00 1.9533258535134866e+01 1.5105712338573818e+01 0 0 0
1809 1 4.2148335030419517e+00 2.4869645644915881e+01 2.0632027732183190e+01 0 0 0
1369 1 4.2611508854011637e+00 1.9535154441203694e+01 1.5099775064377473e+01 0 0 0
966 1 2.8926762007789564e+00 2.0861571820537485e+01 1.3851407651727015e+01 0 0 0
974 1 8.3651297839698504e+00 2.0934911516726618e+01 1.3804347392896027e+01 0 0 0
1377 1 9.6809088971237269e+00 1.9586750827089840e+01 1.5033919336947529e+01 0 0 0
981 1 1.2442111288356243e+01 1.9548329089059465e+01 1.2501354454938367e+01 0 0 0
964 1 3.5158308083766143e-01 2.3584592450105703e+01 1.3957325706052755e+01 0 0 0
1367 1 1.7244397409237093e+00 2.2270530043443681e+01 1.5252434285423332e+01 0 0 0
972 1 5.5847854411121682e+00 2.3584250334264500e+01 1.3918452949164545e+01 0 0 0
971 1 4.3281994224090115e+00 2.2252031700903625e+01 1.2601898040294625e+01 0 0 0
1375 1 7.0007465973211556e+00 2.2283805603004136e+01 1.5324793154492157e+01 0 0 0
980 1 1.1035561113022844e+01 2.3466459354787691e+01 1.4011838489834318e+01 0 0 0
1383 1 1.2460689553869630e+01 2.2159764505334845e+01 1.5279175330887698e+01 0 0 0
1213 1 7.1245456902016553e+00 -2.1154692204164860e+00 1.7931237174374154e+01 0 0 0
1021 1 1.2417480830503766e+01 2.4834266210146382e+01 1.2613147122007263e+01 0 0 0
1202 1 3.6510198669796590e-01 -1.0098368886251812e+00 1.6565187439604735e+01 0 0 0
1211 1 4.3833300241481705e+00 4.7725482235930894e-01 1.7981526709307971e+01 0 0 0
1206 1 3.0185579497418145e+00 -9.5246427526717503e-01 1.9247836221154110e+01 0 0 0
1210 1 5.7765171192776581e+00 -7.9877387514243448e-01 1.6584762249906795e+01 0 0 0
1214 1 8.4529497432158198e+00 -8.2491882467839650e-01 1.9275220138521895e+01 0 0 0
1218 1 1.1090548809693443e+01 -8.4825509127411225e-01 1.6517347455346261e+01 0 0 0
1219 1 9.7678286041982378e+00 6.2250630624377079e-01 1.7936260746511913e+01 0 0 0
1245 1 1.6823727295899875e+00 3.1664815006476408e+00 1.8054155559570304e+01 0 0 0
1208 1 3.0399113633875414e+00 1.9126813423328182e+00 1.6701172245300469e+01 0 0 0
1253 1 7.1715463460470215e+00 3.4467507556729329e+00 1.7862268349837642e+01 0 0 0
1216 1 8.4436391781496365e+00 1.9542508910623928e+00 1.6435360279501623e+01 0 0 0
1220 1 1.1292057852052213e+01 2.1005381281182052e+00 1.9254507052581296e+01 0 0 0
1242 1 3.0332441735509841e-01 4.4707501606051396e+00 1.6687605435170816e+01 0 0 0
1243 1 -1.0701932845429951e+00 5.9266659626603797e+00 1.8042093630365272e+01 0 0 0
1251 1 4.3835730963908235e+00 5.9699696385805101e+00 1.8057892158219893e+01 0 0 0
1250 1 5.6671574417134938e+00 4.6853816481643991e+00 1.6619634469011189e+01 0 0 0
1246 1 3.0313035549995764e+00 4.5750787867829974e+00 1.9273875999592626e+01 0 0 0
1254 1 8.5705170392625263e+00 4.7152446603533749e+00 1.9274130937939134e+01 0 0 0
1258 1 1.1170994351248678e+01 4.7678214087576718e+00 1.6598757882984899e+01 0 0 0
1259 1 9.8240873576987440e+00 6.0744602692674459e+00 1.7888851221450771e+01 0 0 0
1285 1 1.5687392858317621e+00 8.7966525873684862e+00 1.7980533497395051e+01 0 0 0
1244 1 2.2566260516794645e-01 7.3612047624639132e+00 1.9274808621806407e+01 0 0 0
1248 1 2.9556053835522418e+00 7.2565329005056878e+00 1.6703651925751736e+01 0 0 0
1256 1 8.4544606808237113e+00 7.4673135366311580e+00 1.6589042457913756e+01 0 0 0
1293 1 7.0344091079768987e+00 8.6313618503392657e+00 1.7982794651349451e+01 0 0 0
1252 1 5.6453552983307578e+00 7.3173934850887328e+00 1.9405804728431633e+01 0 0 0
1301 1 1.2486876610402891e+01 8.7159793874460458e+00 1.8030517149198452e+01 0 0 0
1260 1 1.1045350955372239e+01 7.2568214145404824e+00 1.9505292460933511e+01 0 0 0
1283 1 -1.0404661980097534e+00 1.1369002850433009e+01 1.7790344683256862e+01 0 0 0
1282 1 3.4620998748430520e-01 9.9944713875443849e+00 1.6512242269699385e+01 0 0 0
1291 1 4.2284493411904540e+00 1.1381947007699953e+01 1.7868747917483049e+01 0 0 0
1290 1 5.6161526215906781e+00 1.0080798013405101e+01 1.6575977153232564e+01 0 0 0
1288 1 3.0114674312283389e+00 1.2786727196310832e+01 1.6534030455467175e+01 0 0 0
1296 1 8.4636288979172392e+00 1.2712757150174921e+01 1.6606207864817179e+01 0 0 0
1292 1 5.6725735416938505e+00 1.2756105824124255e+01 1.9255753220680404e+01 0 0 0
1294 1 8.4593298054035806e+00 1.0016491206956125e+01 1.9308241629191606e+01 0 0 0
1299 1 9.8397267780804079e+00 1.1408921201316902e+01 1.7949181834184508e+01 0 0 0
1298 1 1.1104413424124722e+01 9.9665213493967357e+00 1.6484491036362179e+01 0 0 0
1325 1 1.5269784169845484e+00 1.4122826625095769e+01 1.7832971731685113e+01 0 0 0
1322 1 2.5006786404042547e-01 1.5562048397846073e+01 1.6537846431547663e+01 0 0 0
1330 1 5.7804339603145305e+00 1.5367986293223620e+01 1.6648835764509897e+01 0 0 0
1333 1 7.1279553932286444e+00 1.3991388936667892e+01 1.7980546458479267e+01 0 0 0
1338 1 1.1206900910652557e+01 1.5336003539809884e+01 1.6501006516237616e+01 0 0 0
1324 1 3.8008585571075293e-01 1.8247239545582278e+01 1.9256612674971578e+01 0 0 0
1331 1 4.3364520911797815e+00 1.6758869818274370e+01 1.7862319955571529e+01 0 0 0
1328 1 2.9640171646127538e+00 1.8233840071317630e+01 1.6693703597771510e+01 0 0 0