LAMMPS data file via write_data, version 30 Jul 2016, timestep = 2500

2000 atoms
1 atom types

-1.1035060619665522e+00 2.6103506061966492e+01 xlo xhi
-2.2070121239331044e+00 5.2207012123932984e+01 ylo yhi
-1.1035060619665522e+00 2.6103506061966492e+01 zlo zhi

Masses

1 28.0855

Atoms # atomic

848 1 2.9692255150651659e+00 7.4104876769856869e+00 1.1046238610816586e+01 0 0 0
2 1 3.3214057021484439e-01 -7.3855062432761209e-01 1.8053719612851288e-01 0 0 0
885 1 1.6103720112505262e+00 8.5947698472984086e+00 1.2470427371736783e+01 0 0 0
5 1 1.6074695868815603e+00 -2.1215730345208343e+00 1.5579470006559837e+00 0 0 0
881 1 -1.0155916331732608e+00 8.5715040028054688e+00 9.7460599807698944e+00 0 0 0
929 1 4.3157473001629221e+00 1.4231623671593512e+01 9.5872698920897879e+00 0 0 0
11 1 4.3992033258235903e+00 5.2675159797128634e-01 1.4785332457470219e+00 0 0 0
10 1 5.6463773783580331e+00 -9.1413556571418564e-01 1.4591058507172966e-01 0 0 0
925 1 1.5540373268988046e+00 1.4040974664460133e+01 1.2468447702995443e+01 0 0 0
938 1 1.0946122363710467e+01 1.5395132253431742e+01 1.1155614744241545e+01 0 0 0
922 1 6.2611280746375925e-02 1.5262037914356377e+01 1.1104286706571727e+01 0 0 0
18 1 1.1193487316665200e+01 -8.9714746457986583e-01 3.2100567599669733e-01 0 0 0
19 1 9.7431154938789053e+00 5.5165780373874840e-01 1.5734161230383890e+00 0 0 0
858 1 1.1265009396260190e+01 4.8561347706320204e+00 1.1023127403474605e+01 0 0 0
23 1 1.2497792817904335e+01 4.9720063113355351e-01 -1.0698774335199583e+00 0 0 0
41 1 -1.0372007543570700e+00 3.2275282389645170e+00 -9.9097418516212421e-01 0 0 0
45 1 1.6577713505226215e+00 3.2069606301787634e+00 1.6093008754195592e+00 0 0 0
855 1 7.0643030346226441e+00 5.9928350262141779e+00 9.7605904475975045e+00 0 0 0
8 1 3.0675980037822668e+00 1.8957814328498122e+00 1.7961214494057953e-01 0 0 0
53 1 7.0218337328478526e+00 3.2493012267075803e+00 1.5640297276112616e+00 0 0 0
16 1 8.4195940907923319e+00 1.8347616628543661e+00 3.0651780009466245e-01 0 0 0
57 1 9.8434672302261266e+00 3.1240586427094872e+00 -1.0915455890789487e+00 0 0 0
61 1 1.2474292024104768e+01 3.1102231587428686e+00 1.6287263082866899e+00 0 0 0
42 1 2.3429120802625680e-01 4.6175631043405883e+00 4.6141254534002069e-01 0 0 0
930 1 5.5846239060904219e+00 1.5647923294541291e+01 1.1075003988127680e+01 0 0 0
851 1 4.3422494336790969e+00 5.9836404500031364e+00 1.2394177588427457e+01 0 0 0
51 1 4.2921168850005227e+00 6.0222520864426814e+00 1.6548627000732399e+00 0 0 0
50 1 5.6558721605058535e+00 4.7068551449874914e+00 2.4673682516836820e-01 0 0 0
55 1 7.1594200022873657e+00 5.9194084890847476e+00 -1.0219045905043684e+00 0 0 0
58 1 1.1146351457094843e+01 4.5437008684512126e+00 3.3485038106367110e-01 0 0 0
59 1 9.6962543743530603e+00 5.9374747096819895e+00 1.6377602538950902e+00 0 0 0
850 1 5.6655255719822915e+00 4.6030617241565457e+00 1.1120065794789857e+01 0 0 0
975 1 7.1061504286993031e+00 2.2311576584459036e+01 9.8525708947059840e+00 0 0 0
85 1 1.5666779042779453e+00 8.6107026179286095e+00 1.5372226742491464e+00 0 0 0
48 1 2.9879450366067046e+00 7.3713451768208467e+00 1.6592633422018929e-01 0 0 0
941 1 1.2338181151928463e+01 1.4248547977870007e+01 1.2426747097562751e+01 0 0 0
56 1 8.5145323182710388e+00 7.5023905210183504e+00 2.7269192291230326e-01 0 0 0
93 1 6.9414644474161964e+00 8.7189194040634916e+00 1.5034310669311757e+00 0 0 0
847 1 1.6505033102371522e+00 6.0100671303985900e+00 9.8044546958122130e+00 0 0 0
976 1 8.3684353829772853e+00 2.3620867651833596e+01 1.1175346739630649e+01 0 0 0
82 1 7.6787018711376276e-02 9.9429241848891632e+00 2.6351854368692379e-01 0 0 0
842 1 3.5013798361351167e-01 4.6394613426393354e+00 1.1190916779389569e+01 0 0 0
87 1 1.4703370015042700e+00 1.1495861593224745e+01 -9.7519768619431657e-01 0 0 0
90 1 5.5339120583314605e+00 1.0147354416200237e+01 1.8426283593308590e-01 0 0 0
91 1 4.2035420902883720e+00 1.1399771986647037e+01 1.6241642869373158e+00 0 0 0
88 1 2.9794603015838894e+00 1.2870300386764056e+01 2.8864327190922889e-01 0 0 0
861 1 1.2465545389060846e+01 3.3501222202661212e+00 1.2385552977689539e+01 0 0 0
96 1 8.4955646821964432e+00 1.2681734941028067e+01 2.4968598446168380e-01 0 0 0
98 1 1.1168190085477372e+01 9.9843998249385919e+00 3.4881133080211080e-01 0 0 0
99 1 9.9454672473392201e+00 1.1358082895780088e+01 1.6224303539254636e+00 0 0 0
103 1 1.2442752195275885e+01 1.1258715264382202e+01 -1.0170979383602432e+00 0 0 0
903 1 1.2287548421029022e+01 1.1432694383583707e+01 9.6561206723635227e+00 0 0 0
125 1 1.5939150401036801e+00 1.4183417067098290e+01 1.6535483604669148e+00 0 0 0
122 1 2.6210699531622600e-01 1.5463095483709903e+01 2.6721499200874532e-01 0 0 0
857 1 9.8223958416587607e+00 3.4825054603199792e+00 9.8154037678545887e+00 0 0 0
130 1 5.6596009126753053e+00 1.5389780543973698e+01 2.0279896070298217e-01 0 0 0
133 1 6.9910154762860106e+00 1.3929426094410458e+01 1.6818898051656774e+00 0 0 0
137 1 9.7682939032309335e+00 1.4072559974581438e+01 -1.0839859763561643e+00 0 0 0
141 1 1.2337240778448662e+01 1.4189966532120962e+01 1.5725144760270311e+00 0 0 0
138 1 1.1068262735945599e+01 1.5506295015672308e+01 1.8784114522997056e-01 0 0 0
968 1 2.9504531504091234e+00 2.3674779293493174e+01 1.1225808152287733e+01 0 0 0
853 1 7.0355411230368272e+00 3.0764079412645318e+00 1.2457737770828887e+01 0 0 0
131 1 4.3743088612176706e+00 1.6838545435239723e+01 1.5615224723225671e+00 0 0 0
128 1 3.1628274672870367e+00 1.8143560551655220e+01 2.0252596726814415e-01 0 0 0
135 1 7.0083004394627482e+00 1.6733890644047314e+01 -1.0573998108160556e+00 0 0 0
136 1 8.4034474749253611e+00 1.8059238869803494e+01 2.2961560791750307e-01 0 0 0
139 1 9.7704451787540645e+00 1.6783471183419469e+01 1.5074434575700117e+00 0 0 0
816 1 8.5487287654463859e+00 1.9760291100787577e+00 1.1059051259560242e+01 0 0 0
898 1 1.1191220193348597e+01 1.0206808868849405e+01 1.1211814823062088e+01 0 0 0
162 1 1.0905031254255051e-01 2.0935905552857946e+01 3.0720373785561628e-01 0 0 0
165 1 1.6469238044316283e+00 1.9486276890277733e+01 1.5682800016114162e+00 0 0 0
169 1 4.5489508611941698e+00 1.9667235487786176e+01 -1.1007543199475429e+00 0 0 0
170 1 5.8756707128584171e+00 2.1020444435979918e+01 2.4740200155423001e-01 0 0 0
173 1 7.0734550997838239e+00 1.9551723138531354e+01 1.5948291376249104e+00 0 0 0
808 1 2.9942812024341521e+00 1.6617244633790491e+00 1.1303528678138978e+01 0 0 0
178 1 1.1145637610851718e+01 2.0843665811183509e+01 2.4809662300505211e-01 0 0 0
181 1 1.2429237284957077e+01 1.9671805413482591e+01 1.6646760314833866e+00 0 0 0
967 1 1.5184402443257390e+00 2.2365874976284754e+01 9.8850496848876226e+00 0 0 0
167 1 1.5828127507074863e+00 2.2321032221734871e+01 -1.0350220538922013e+00 0 0 0
896 1 8.3691763243897999e+00 1.2880124178088966e+01 1.1251817522093583e+01 0 0 0
205 1 1.5252157202565555e+00 2.4892008425931042e+01 1.7979546318346991e+00 0 0 0
171 1 4.3803055236783353e+00 2.2270498256467565e+01 1.5689598707110581e+00 0 0 0
168 1 2.9297074789996529e+00 2.3690387548020350e+01 2.8162015606149526e-01 0 0 0
895 1 7.1865105655453423e+00 1.1571529265540113e+01 9.6800654193075708e+00 0 0 0
849 1 4.2856748499159778e+00 3.0830312168784055e+00 9.8830792815044806e+00 0 0 0
176 1 8.5202424570217765e+00 2.3738961350675709e+01 2.6372025630437440e-01 0 0 0
888 1 2.8935339936487812e+00 1.2782594546476554e+01 1.0961118602159614e+01 0 0 0
179 1 9.7634293988372978e+00 2.2225253859030531e+01 1.6615356325622950e+00 0 0 0
183 1 1.2377424290625809e+01 2.2295681752386276e+01 -1.0568587841898909e+00 0 0 0
891 1 4.3597551434416877e+00 1.1402993331842122e+01 1.2363112451508501e+01 0 0 0
221 1 1.2421857355114797e+01 2.4929655365321416e+01 1.8211606053502865e+00 0 0 0
841 1 -1.0394131563739337e+00 3.2634411399841565e+00 9.7412723135538570e+00 0 0 0
407 1 1.6653041904890673e+00 4.3426121315232846e-01 4.2930512480386298e+00 0 0 0
402 1 2.9103048396420994e-01 -8.1113824230458631e-01 5.7563506730446843e+00 0 0 0
890 1 5.8188583688338680e+00 1.0173413238658204e+01 1.1018883469530323e+01 0 0 0
6 1 3.0608329883578849e+00 -8.4664209766240184e-01 2.8549701634153246e+00 0 0 0
410 1 5.7470155210422398e+00 -8.0302516855335937e-01 5.5069882732468738e+00 0 0 0
14 1 8.3405958329190959e+00 -8.1992716872524929e-01 2.9230929163789696e+00 0 0 0
415 1 7.1214512938358192e+00 6.6480666747071870e-01 4.2251746152737679e+00 0 0 0
417 1 9.6794972013023433e+00 -2.0866531961887747e+00 4.2816978348431958e+00 0 0 0
977 1 9.9428412774083039e+00 1.9618313479228039e+01 9.9093953099886356e+00 0 0 0
418 1 1.1163542022177618e+01 -8.1605302236491051e-01 5.6004048177452672e+00 0 0 0
978 1 1.1121015805414126e+01 2.0957161704504177e+01 1.1381360747424862e+01 0 0 0
4 1 2.6356616093123053e-01 1.9300126294322242e+00 2.8647209757884404e+00 0 0 0
449 1 4.3705706237090673e+00 3.1856273528750090e+00 4.3173507999319893e+00 0 0 0
12 1 5.8134584177463147e+00 1.9250455967989213e+00 2.8975629082702432e+00 0 0 0
408 1 2.9585091192295350e+00 1.8126008737801060e+00 5.6887102625504191e+00 0 0 0
416 1 8.3903459773635465e+00 1.9024007037809476e+00 5.8108695017897727e+00 0 0 0
457 1 9.9818749320092106e+00 3.1222439532266186e+00 4.4147253875859489e+00 0 0 0
20 1 1.1220024520721047e+01 1.7878519150030618e+00 2.9722846224071162e+00 0 0 0
447 1 1.6747162214162643e+00 5.8817144663878960e+00 4.2023435887819831e+00 0 0 0
442 1 3.0659690239286158e-01 4.4863518263470956e+00 5.5496683089712517e+00 0 0 0
46 1 2.9562478359609852e+00 4.5361954336504908e+00 2.8631611247758499e+00 0 0 0
450 1 5.7042171548290925e+00 4.6574797913556374e+00 5.7440733587009207e+00 0 0 0
54 1 8.4319330146648195e+00 4.5283390024760672e+00 3.0026509782913187e+00 0 0 0
455 1 7.1080700644607813e+00 6.0323880884772079e+00 4.3432831190954451e+00 0 0 0
973 1 7.0882515498949186e+00 1.9629918184357265e+01 1.2488377864001858e+01 0 0 0
458 1 1.1334521851216623e+01 4.6196733621631987e+00 5.7467105633385822e+00 0 0 0
44 1 2.8502871229197213e-01 7.3057157927615703e+00 2.9798493040081695e+00 0 0 0
481 1 -1.0905503612905509e+00 8.7369759609632069e+00 4.2409776749155306e+00 0 0 0
52 1 5.7019694058931893e+00 7.4441569604125331e+00 2.9619824679352869e+00 0 0 0
489 1 4.1779378512045087e+00 8.6269737169551846e+00 4.3969876911718799e+00 0 0 0
448 1 2.9514100389493052e+00 7.2220191427969684e+00 5.6887367857226234e+00 0 0 0
456 1 8.4585948305916059e+00 7.4108895959075518e+00 5.6671452169149186e+00 0 0 0
60 1 1.1166180986966644e+01 7.2260024798165325e+00 2.9673128641374351e+00 0 0 0
497 1 9.8219790803884823e+00 8.7633680740467703e+00 4.2038277347431965e+00 0 0 0
482 1 1.6042489976667770e-01 1.0066080699205809e+01 5.6359334502789524e+00 0 0 0
487 1 1.6012532270243733e+00 1.1449822298012084e+01 4.3438899196640834e+00 0 0 0
84 1 1.9447714312703560e-01 1.2775223073014953e+01 2.9045663509672206e+00 0 0 0
86 1 2.8564377070303064e+00 9.9803667944035137e+00 2.9252865863362252e+00 0 0 0
490 1 5.6834785488928645e+00 1.0018673146219049e+01 5.5897569282443902e+00 0 0 0
92 1 5.5854482868222366e+00 1.2736689092202768e+01 3.0072126364642426e+00 0 0 0
488 1 2.9350386704719993e+00 1.2694565574643926e+01 5.7586138802167195e+00 0 0 0
94 1 8.3377582709933069e+00 1.0052994479756508e+01 2.8644010734595962e+00 0 0 0
495 1 6.9204457518885150e+00 1.1401808564211837e+01 4.2730439147208301e+00 0 0 0
496 1 8.4000717144685062e+00 1.2788380703906247e+01 5.5296913142872723e+00 0 0 0
498 1 1.1173322969417155e+01 1.0246295241770378e+01 5.6812611113769016e+00 0 0 0
503 1 1.2474037506686065e+01 1.1525670008779812e+01 4.2602485114441579e+00 0 0 0
100 1 1.1247614014023497e+01 1.2803635387054939e+01 2.9353670212283887e+00 0 0 0
969 1 4.2068494323300181e+00 1.9489164542031304e+01 9.7310885748093732e+00 0 0 0
522 1 1.2658048352194348e-01 1.5445496792640807e+01 5.7627255379273032e+00 0 0 0
529 1 4.2401553289384211e+00 1.3975910206933762e+01 4.2860817707154926e+00 0 0 0
126 1 2.9618821472372945e+00 1.5435906473683701e+01 3.0611975170883032e+00 0 0 0
530 1 5.6735027344450479e+00 1.5438956928687407e+01 5.6041827068252523e+00 0 0 0
134 1 8.2670120623286731e+00 1.5444586465469277e+01 2.8065095428154576e+00 0 0 0
537 1 9.6351803068604838e+00 1.4128682833858345e+01 4.1601660705514290e+00 0 0 0
538 1 1.1042341748339584e+01 1.5404887616019106e+01 5.6735012180253133e+00 0 0 0
527 1 1.6089826605817059e+00 1.6858674662575194e+01 4.3509175019276825e+00 0 0 0
124 1 2.9844771699394734e-01 1.8070920160386049e+01 2.8967231329605294e+00 0 0 0
132 1 5.6982694525299857e+00 1.8269406535740742e+01 2.9823961668425829e+00 0 0 0
528 1 2.8793096779716865e+00 1.8191769914616938e+01 5.7338542979003169e+00 0 0 0
535 1 7.0395897910257785e+00 1.6681675966424194e+01 4.2851484515069851e+00 0 0 0
536 1 8.3206855162554074e+00 1.8083414165560548e+01 5.7038237008447821e+00 0 0 0
543 1 1.2395258636732981e+01 1.6954839863349711e+01 4.3267516073903387e+00 0 0 0
140 1 1.1003947679597159e+01 1.8352077461482992e+01 3.0192354997755610e+00 0 0 0
561 1 -1.0092927776212395e+00 1.9440392269861093e+01 4.3520715536448744e+00 0 0 0
562 1 1.3274960390337193e-01 2.0974415273335762e+01 5.8333516296342403e+00 0 0 0
569 1 4.3390600745750874e+00 1.9555920107633874e+01 4.4232559512314387e+00 0 0 0
166 1 2.9886807721174682e+00 2.0968807556456596e+01 2.9271418472516757e+00 0 0 0
570 1 5.6505557843946024e+00 2.0895306984177047e+01 5.6720207097063344e+00 0 0 0
174 1 8.2741413016813610e+00 2.0967566282979714e+01 2.9692418506242664e+00 0 0 0
577 1 9.6247426727122676e+00 1.9757254739658855e+01 4.4606081016201182e+00 0 0 0
578 1 1.1148527446780188e+01 2.0962795928121466e+01 5.7231900593891059e+00 0 0 0
164 1 2.4168636320694239e-02 2.3654776605900384e+01 3.0745177473222376e+00 0 0 0
567 1 1.4777523725464166e+00 2.2255041658253745e+01 4.4405257872449502e+00 0 0 0
970 1 5.6312215305698281e+00 2.0923674009027486e+01 1.1178324665562723e+01 0 0 0
172 1 5.6792314227753851e+00 2.3741464362773659e+01 2.9510241367097985e+00 0 0 0
568 1 2.9404968779688900e+00 2.3540377347279303e+01 5.7261534283986792e+00 0 0 0
609 1 4.2454699328313970e+00 2.4930576161177996e+01 4.3404756832157521e+00 0 0 0
575 1 7.0272506559290120e+00 2.2400870114765983e+01 4.2483223635487475e+00 0 0 0
576 1 8.3711939883496811e+00 2.3641568511970792e+01 5.8949967679824651e+00 0 0 0
180 1 1.0918781135805224e+01 2.3707159385845518e+01 3.0997056106250556e+00 0 0 0
583 1 1.2433138350713914e+01 2.2329779983429376e+01 4.2621854108647330e+00 0 0 0
821 1 1.2446546281800858e+01 -2.0531300961207419e+00 1.2463182096331513e+01 0 0 0
819 1 9.7673636410700588e+00 4.9002399052696299e-01 1.2389156962560184e+01 0 0 0
887 1 1.4469631488337833e+00 1.1267977948407564e+01 9.8216072376057681e+00 0 0 0
411 1 4.4880898927916366e+00 4.9472171897589140e-01 7.0481814955254238e+00 0 0 0
406 1 2.9871562860759009e+00 -8.6921682713761450e-01 8.4344003821641511e+00 0 0 0
413 1 7.0668248705212422e+00 -2.1716592371959740e+00 6.9620934911607453e+00 0 0 0
414 1 8.4109623854149191e+00 -9.1273305754716794e-01 8.3692538235109772e+00 0 0 0
419 1 9.8390882716860002e+00 4.4355462083933134e-01 7.0518962416162960e+00 0 0 0
882 1 1.4272414240800535e-01 9.9749696773434930e+00 1.1214653726631308e+01 0 0 0
404 1 3.7211430710645399e-01 1.7361364553126941e+00 8.3924002667425874e+00 0 0 0
445 1 1.6359165593313794e+00 3.1666895406944588e+00 7.0353820407388890e+00 0 0 0
412 1 5.7273383476402557e+00 1.9329440067517507e+00 8.4078713074123694e+00 0 0 0
453 1 7.0521085935258361e+00 3.4036201205503636e+00 7.1949001544376223e+00 0 0 0
420 1 1.1155853638539307e+01 1.9546393296579898e+00 8.3589779950242260e+00 0 0 0
962 1 2.2253282219857401e-01 2.0961929124988217e+01 1.1268189518320202e+01 0 0 0
443 1 -1.0331188075283098e+00 5.7776560902179419e+00 7.0010411239184611e+00 0 0 0
451 1 4.3049023782852416e+00 5.7983971906132172e+00 7.2270953446524855e+00 0 0 0
446 1 2.9873595057790667e+00 4.3812180315222795e+00 8.4854831138224629e+00 0 0 0
454 1 8.5516879048454371e+00 4.8253058168647778e+00 8.3846417592850173e+00 0 0 0
459 1 9.9077827778360650e+00 6.0604710207334600e+00 7.0003338838086506e+00 0 0 0
444 1 3.5739379577430791e-01 7.2099715859663096e+00 8.3128359330726695e+00 0 0 0
485 1 1.6292280975045685e+00 8.6473923224444214e+00 6.9926166547115445e+00 0 0 0
452 1 5.6844639111979101e+00 7.3250767780662978e+00 8.4354711375733515e+00 0 0 0
493 1 7.0044009912188043e+00 8.7060041595515596e+00 7.0382968436175206e+00 0 0 0
460 1 1.1201841869100960e+01 7.4544408780765972e+00 8.4001946524696205e+00 0 0 0
823 1 1.2493765621206427e+01 5.5388355761635166e-01 9.7569470519157981e+00 0 0 0
943 1 1.2387624278518741e+01 1.6776184107699724e+01 9.8256446471290904e+00 0 0 0
484 1 1.9016827362998562e-01 1.2666210564997685e+01 8.3540896149510910e+00 0 0 0
486 1 2.9216184618559704e+00 1.0124615360681513e+01 8.2801253784803475e+00 0 0 0
491 1 4.4017374090650447e+00 1.1390650091098703e+01 6.9848700960963921e+00 0 0 0
492 1 5.7634570421542834e+00 1.2838253701880745e+01 8.3948653619051576e+00 0 0 0
494 1 8.4009684500304544e+00 1.0020960675983288e+01 8.3341080427386274e+00 0 0 0
499 1 9.5971786809685113e+00 1.1526866950847488e+01 6.9801223385913858e+00 0 0 0
500 1 1.0912561892939344e+01 1.2851053321980185e+01 8.3957601261465875e+00 0 0 0
525 1 1.4947916656122771e+00 1.3973007295991819e+01 6.9127576469981831e+00 0 0 0
526 1 2.7406728363275272e+00 1.5455216053537216e+01 8.3779152408239579e+00 0 0 0
533 1 7.1289305231590729e+00 1.4163549624104991e+01 6.9420490348514949e+00 0 0 0
534 1 8.1966707247672552e+00 1.5472654485724004e+01 8.4351920164680134e+00 0 0 0
541 1 1.2498996882575263e+01 1.4202834770348680e+01 7.0426433095289527e+00 0 0 0
935 1 6.9531385298061545e+00 1.6945242704295371e+01 9.8071762546277501e+00 0 0 0
524 1 1.9023395876909807e-01 1.8224132670635544e+01 8.5300302546098408e+00 0 0 0
531 1 4.2824640306131752e+00 1.6755307989643246e+01 7.0295226496023790e+00 0 0 0
532 1 5.5038613901349391e+00 1.8222345653581726e+01 8.3502169654792553e+00 0 0 0
539 1 9.7479531926435055e+00 1.6751129853305866e+01 7.1108685675555270e+00 0 0 0
540 1 1.1262676289831081e+01 1.8221954005014776e+01 8.3725349694333051e+00 0 0 0
565 1 1.5631463967707326e+00 1.9623181261421443e+01 7.1707746407376121e+00 0 0 0
566 1 2.9068017975189862e+00 2.1012572372474789e+01 8.5094399702513837e+00 0 0 0
573 1 7.0451901371510361e+00 1.9544841701564167e+01 7.0649228685218715e+00 0 0 0
574 1 8.4180459914473538e+00 2.0960600315762193e+01 8.4355288567538338e+00 0 0 0
936 1 8.3761549039339513e+00 1.8284831144468139e+01 1.1031787672895149e+01 0 0 0
818 1 1.1115952642631020e+01 -8.1888504500578874e-01 1.1069974401627451e+01 0 0 0
564 1 2.6830295100908097e-01 2.3734319724443427e+01 8.4846732220106986e+00 0 0 0
605 1 1.6516379223347759e+00 2.4999389833933087e+01 7.1444902361054643e+00 0 0 0
571 1 4.3189931603026634e+00 2.2289365165258396e+01 7.0665449310637198e+00 0 0 0
572 1 5.6256949818176798e+00 2.3675261966730570e+01 8.4776343106676038e+00 0 0 0
937 1 9.5822346091383821e+00 1.4326894476082275e+01 9.7732848173281681e+00 0 0 0
579 1 9.8171390921502280e+00 2.2339077087899362e+01 7.0881381259715317e+00 0 0 0
580 1 1.1135311981986733e+01 2.3683797131880944e+01 8.5058360491964429e+00 0 0 0
928 1 2.9115800682279054e+00 1.8156524588133912e+01 1.1123484008120839e+01 0 0 0
927 1 1.4823656168087145e+00 1.6736207857530175e+01 9.8208042370380682e+00 0 0 0
802 1 1.9982596057858937e-01 -9.0390630423142682e-01 1.1115112785606566e+01 0 0 0
807 1 1.6792436456511617e+00 3.9159023771807999e-01 9.8557269575510968e+00 0 0 0
803 1 -1.0714992663528482e+00 4.1032619364504813e-01 1.2481797888274313e+01 0 0 0
897 1 9.9495565405844992e+00 8.8943874030408363e+00 9.7630636361610144e+00 0 0 0
893 1 7.0433667815854113e+00 8.6979746520990613e+00 1.2378507521497658e+01 0 0 0
810 1 5.8228738241196361e+00 -8.0381318440992133e-01 1.1038086750491194e+01 0 0 0
889 1 4.3930981867430976e+00 8.8080432846959038e+00 9.6815883271711183e+00 0 0 0
815 1 7.1182807829610404e+00 5.3639677461586721e-01 9.6541072379480202e+00 0 0 0
856 1 8.4765132339029670e+00 7.4467172504583337e+00 1.1056597181678461e+01 0 0 0
1724 1 1.0452480180735468e-01 1.8069008419150695e+01 2.4754141946723369e+01 0 0 0
1207 1 1.6960813865167093e+00 4.7287677206064954e-01 1.5136193733612730e+01 0 0 0
1209 1 4.4870206768283429e+00 -2.1962147745197029e+00 1.5210716664654667e+01 0 0 0
806 1 3.0193338582333986e+00 -1.0285961458660486e+00 1.3804456731137313e+01 0 0 0
814 1 8.4586251781964759e+00 -8.5130354259938412e-01 1.3749342342629404e+01 0 0 0
1215 1 7.1338991773429292e+00 4.9135077005643235e-01 1.5211880875254074e+01 0 0 0
1732 1 5.6556561885967973e+00 1.8070295667558977e+01 2.4773890388829741e+01 0 0 0
1734 1 8.3320212069565169e+00 1.5440750050451507e+01 2.4872151010343615e+01 0 0 0
1779 1 9.8757597111835711e+00 2.2269530562505185e+01 2.3335732839981585e+01 0 0 0
804 1 1.9960804430597517e-01 1.6664930533680069e+00 1.3811724895791832e+01 0 0 0
1249 1 4.2771072974194757e+00 3.1360961853437570e+00 1.5240666263632397e+01 0 0 0
812 1 5.6563934611325157e+00 1.7727576341114202e+00 1.3909229694063150e+01 0 0 0
1257 1 9.7698911912922259e+00 3.2506416846137971e+00 1.5092756496599673e+01 0 0 0
820 1 1.1116006227900847e+01 1.7610832195074673e+00 1.3673993807188765e+01 0 0 0
1247 1 1.6189880306773243e+00 5.8416398876364202e+00 1.5179281188905875e+01 0 0 0
846 1 2.9405852547751383e+00 4.5612962739193419e+00 1.3768597840176918e+01 0 0 0
854 1 8.3911177375820234e+00 4.6234689785284466e+00 1.3811469647515327e+01 0 0 0
1255 1 6.9719835377118899e+00 5.9249353837840726e+00 1.5106472837612714e+01 0 0 0
1263 1 1.2320891065644526e+01 6.0636915835277101e+00 1.5197392794881921e+01 0 0 0
844 1 3.5089988625522822e-01 7.2198576976177256e+00 1.3860129304506227e+01 0 0 0
1281 1 -1.0791520534861903e+00 8.6147610669473469e+00 1.5129233896851952e+01 0 0 0
852 1 5.6850667837979714e+00 7.3295499310677350e+00 1.3637724988364855e+01 0 0 0
1289 1 4.4524151293468259e+00 8.6879083572195235e+00 1.5169779256155548e+01 0 0 0
860 1 1.1177243622623100e+01 7.4550012583730769e+00 1.3858613895465171e+01 0 0 0
1297 1 9.6225776855678227e+00 8.6374255247439518e+00 1.5161515982010586e+01 0 0 0
1287 1 1.7251187469322422e+00 1.1268217301310770e+01 1.5265418392291728e+01 0 0 0
884 1 3.3213302469131512e-01 1.2645923866616908e+01 1.3774778994302041e+01 0 0 0
886 1 3.0224718453419368e+00 9.9900700227753170e+00 1.3829243773593737e+01 0 0 0
892 1 5.6344664832218294e+00 1.2797929445021508e+01 1.3849563483946495e+01 0 0 0
1295 1 6.9977918253850122e+00 1.1490847878558395e+01 1.5174342308287960e+01 0 0 0
894 1 8.3227572547756434e+00 9.9436732898108691e+00 1.3813548681106198e+01 0 0 0
1303 1 1.2463698297126729e+01 1.1533499931073230e+01 1.5171281646589065e+01 0 0 0
900 1 1.1109617210236648e+01 1.2811683348721369e+01 1.3811328280372331e+01 0 0 0
1321 1 -1.0129284083524241e+00 1.4104520697157747e+01 1.5057745783134131e+01 0 0 0
1329 1 4.4190802903411077e+00 1.4220932703656068e+01 1.5290841888496827e+01 0 0 0
926 1 3.0859731340851457e+00 1.5521887141246978e+01 1.3851812960852879e+01 0 0 0
934 1 8.5785316726945950e+00 1.5484550004669178e+01 1.3966769468182916e+01 0 0 0
1337 1 9.9271071726619784e+00 1.4222551298019964e+01 1.5260927549025485e+01 0 0 0
1327 1 1.5594833701257118e+00 1.6834075222525179e+01 1.5254652057581481e+01 0 0 0
924 1 1.7790218980732664e-01 1.8100060862167602e+01 1.3810875391976763e+01 0 0 0
932 1 5.7184489703157393e+00 1.8262118701155693e+01 1.3838407570966503e+01 0 0 0
1335 1 7.1688906209523777e+00 1.6940557529953999e+01 1.5250125725965555e+01 0 0 0
1780 1 1.1125027983901383e+01 2.3610005534381415e+01 2.4721835073300973e+01 0 0 0
940 1 1.1163924309118531e+01 1.8133386192484775e+01 1.4034979826670710e+01 0 0 0
1361 1 -1.0818252843989162e+00 1.9625345649943306e+01 1.5258701500986797e+01 0 0 0
1369 1 4.3034180652602840e+00 1.9591705213374251e+01 1.5235977809893026e+01 0 0 0
966 1 2.9612276032494176e+00 2.0938096593684765e+01 1.3994289364486420e+01 0 0 0
974 1 8.4365718295826557e+00 2.0919089982985305e+01 1.3975468831486097e+01 0 0 0
1377 1 9.8637254016289440e+00 1.9605473713506921e+01 1.5350071817566114e+01 0 0 0
964 1 2.4235784060692331e-01 2.3654372780818996e+01 1.3948293184387424e+01 0 0 0
1367 1 1.6318849156417117e+00 2.2322586868176167e+01 1.5448259835508464e+01 0 0 0
1733 1 6.9769537176061274e+00 1.4168245207563279e+01 2.3522570233717271e+01 0 0 0
972 1 5.5806637186681387e+00 2.3664280146610590e+01 1.3951181215989363e+01 0 0 0
1726 1 2.9562717896759589e+00 1.5422823950454820e+01 2.4651235922681725e+01 0 0 0
1375 1 6.9659768031860079e+00 2.2273212830735304e+01 1.5261258412183146e+01 0 0 0
1725 1 1.4777870574877316e+00 1.4057163133292457e+01 2.3382953024289197e+01 0 0 0
980 1 1.0990656302670690e+01 2.3596640886172249e+01 1.4124548187831740e+01 0 0 0
1383 1 1.2475310273216298e+01 2.2213604016502924e+01 1.5303666344200682e+01 0 0 0
1202 1 1.6445156515212064e-01 -7.0927319962036539e-01 1.6379356205940542e+01 0 0 0
1700 1 1.1066335917132983e+01 1.2754093708323269e+01 2.4743233320899549e+01 0 0 0
1699 1 9.7989175916329820e+00 1.1337726881561913e+01 2.3208023820025137e+01 0 0 0
1211 1 4.4091758811172257e+00 5.1323010163362781e-01 1.7972130725822520e+01 0 0 0
1210 1 5.7773103417091116e+00 -7.8153175986139378e-01 1.6568057447134102e+01 0 0 0
1694 1 8.4008271773722640e+00 9.9167153132599690e+00 2.4600194330681735e+01 0 0 0
1218 1 1.1224550219675656e+01 -8.0549396304945320e-01 1.6371974614616519e+01 0 0 0
1219 1 9.8956579518961956e+00 4.6402200366257784e-01 1.7854744443042442e+01 0 0 0
1771 1 4.3482289191580819e+00 2.2434216411892784e+01 2.3491042491891164e+01 0 0 0
1245 1 1.5612362282962229e+00 3.1939348615861678e+00 1.7978013148378992e+01 0 0 0
1208 1 2.9002329688414648e+00 1.8000181290830850e+00 1.6625149566173899e+01 0 0 0
1253 1 7.0269064443692137e+00 3.1296013620491756e+00 1.7853120518910849e+01 0 0 0
1216 1 8.4837572288871694e+00 1.8791461028982732e+00 1.6478472572216162e+01 0 0 0
1772 1 5.7926193231150176e+00 2.3680117474594173e+01 2.4786963575759970e+01 0 0 0
1242 1 1.3917172268739575e-01 4.5431402766847864e+00 1.6507179472259235e+01 0 0 0
1243 1 -1.0212543160929053e+00 5.8891614872925295e+00 1.7929988002547265e+01 0 0 0
1251 1 4.3732510674863549e+00 5.9752948635533167e+00 1.7919191757232635e+01 0 0 0
1250 1 5.6464421762539434e+00 4.4764944537894564e+00 1.6585730969917481e+01 0 0 0
1258 1 1.1049381322391840e+01 4.6089189876551009e+00 1.6485855577263969e+01 0 0 0
1259 1 9.6997882189259848e+00 6.0542391222505181e+00 1.7769783588692196e+01 0 0 0
1285 1 1.7022551449574501e+00 8.5997169717183297e+00 1.8038517185157467e+01 0 0 0
1248 1 3.0220905337691910e+00 7.3296276344043427e+00 1.6592749131483675e+01 0 0 0
1256 1 8.2160674134049074e+00 7.2929820243510832e+00 1.6542013395072566e+01 0 0 0
1293 1 7.0073411499629596e+00 8.7824693881059179e+00 1.7855052355058806e+01 0 0 0
1301 1 1.2352523740738349e+01 8.8208048247113471e+00 1.7947311706524783e+01 0 0 0
1283 1 -1.0277823819527983e+00 1.1414244504763580e+01 1.7829445232749631e+01 0 0 0
1282 1 1.7381609340966173e-01 9.9881498493320677e+00 1.6479629672087754e+01 0 0 0
1291 1 4.2973968383879928e+00 1.1313568770837939e+01 1.8049638588029826e+01 0 0 0
1290 1 5.6897909117485108e+00 1.0204889257872885e+01 1.6543498356135125e+01 0 0 0
1288 1 3.0452392105167339e+00 1.2690335424431829e+01 1.6663823826159568e+01 0 0 0
1296 1 8.4257604536437665e+00 1.2842253480945084e+01 1.6585963886802269e+01 0 0 0
1299 1 9.8027260848443785e+00 1.1535571194201625e+01 1.7911606232031783e+01 0 0 0
1298 1 1.0976517451344030e+01 1.0093757052969838e+01 1.6458760132840556e+01 0 0 0
1325 1 1.7896074881531587e+00 1.4033506396899003e+01 1.8003306666979771e+01 0 0 0
1322 1 2.8449357222601535e-01 1.5407911988135774e+01 1.6627991900383950e+01 0 0 0
1330 1 5.7487483063570712e+00 1.5585818348831552e+01 1.6609598167728482e+01 0 0 0
1333 1 7.1681474272202248e+00 1.4268803611820999e+01 1.7905658586165508e+01 0 0 0
1763 1 -1.0663908554200903e+00 2.2404561167804207e+01 2.3414524815020158e+01 0 0 0
1338 1 1.1237339302828472e+01 1.5604089209100252e+01 1.6681047392765429e+01 0 0 0
1692 1 5.7272715631495164e+00 1.2790610021717736e+01 2.4747846027792463e+01 0 0 0
1331 1 4.3012080622916153e+00 1.6839702204903368e+01 1.7999197070775882e+01 0 0 0
1328 1 2.8422476336765996e+00 1.8191761640845769e+01 1.6660129207351250e+01 0 0 0
1336 1 8.4278491774619297e+00 1.8298132917042494e+01 1.6687955010744538e+01 0 0 0
1339 1 9.7930478229088891e+00 1.6819708086781123e+01 1.7972988525047182e+01 0 0 0
1362 1 1.5263681581655708e-01 2.0899662649725499e+01 1.6750958392966492e+01 0 0 0
1365 1 1.5599114184893674e+00 1.9585598830700668e+01 1.8075816789510590e+01 0 0 0
1370 1 5.6262394776283386e+00 2.0990560705833712e+01 1.6702457720626558e+01 0 0 0
1373 1 7.0704546969497102e+00 1.9573869962073118e+01 1.7943003801176943e+01 0 0 0
1378 1 1.1183814296533590e+01 2.0893989824370347e+01 1.6691339744461395e+01 0 0 0
1381 1 1.2426358186112411e+01 1.9601600852197596e+01 1.8052276539547741e+01 0 0 0
1686 1 2.8261622000758533e+00 1.0093507753634114e+01 2.4816437840871533e+01 0 0 0
1363 1 -1.0570760450165637e+00 2.2446536655288156e+01 1.8208372324094125e+01 0 0 0
1371 1 4.3772134265927143e+00 2.2368293788463451e+01 1.8082705971900474e+01 0 0 0
1368 1 3.0465282397890130e+00 2.3781139167307977e+01 1.6815105580085561e+01 0 0 0
1691 1 4.2774010059417389e+00 1.1350668996233310e+01 2.3414068754104047e+01 0 0 0
1376 1 8.3047669120510079e+00 2.3676691563079146e+01 1.6533826506751456e+01 0 0 0
1421 1 1.2455682315945285e+01 2.4912281151655435e+01 1.8054684493160444e+01 0 0 0
1379 1 9.6380977658600901e+00 2.2143119526362167e+01 1.7940300744011385e+01 0 0 0
1684 1 1.9431949221114711e-01 1.2778105395963713e+01 2.4768470693734663e+01 0 0 0
1602 1 3.9876150168693425e-01 -8.9798086325989579e-01 2.1788346308039891e+01 0 0 0
1607 1 1.6748556027087909e+00 5.1382059130886293e-01 2.0589634325138572e+01 0 0 0
1731 1 4.2134151037797904e+00 1.6906156696733071e+01 2.3440109171055614e+01 0 0 0
1206 1 3.0736042487118120e+00 -1.0575251493444096e+00 1.9117263119158331e+01 0 0 0
1610 1 5.7058849587449503e+00 -9.2371281080592615e-01 2.1897109443383822e+01 0 0 0
1214 1 8.4661646263597365e+00 -8.1535128049804217e-01 1.9224992912591979e+01 0 0 0