LAMMPS data file via write_data, version 30 Jul 2016, timestep = 5000

2000 atoms
1 atom types

-1.1035060619665522e+00 2.6103506061966492e+01 xlo xhi
-2.2070121239331044e+00 5.2207012123932984e+01 ylo yhi
-1.1035060619665522e+00 2.6103506061966492e+01 zlo zhi

Masses

1 28.0855

Atoms # atomic

2 1 7.5320894416172082e-02 -9.6267696441420336e-01 2.5469005359980784e-01 0 0 0
5 1 1.6559995792396531e+00 -2.1770159696567246e+00 1.5986891545919639e+00 0 0 0
11 1 4.4947385376224274e+00 4.6295922483366114e-01 1.5674692623068318e+00 0 0 0
10 1 5.8313257678745023e+00 -8.4631171011764983e-01 3.3157322928086425e-01 0 0 0
18 1 1.1024150263116271e+01 -7.9697130873575595e-01 4.4717592444699777e-01 0 0 0
19 1 9.7007750497807361e+00 7.4998452763654699e-01 1.6145281702978773e+00 0 0 0
976 1 8.3138241278509977e+00 2.3599688315109908e+01 1.1080770038709238e+01 0 0 0
41 1 -1.0256068737173012e+00 3.1148215323496662e+00 -9.9311063843856839e-01 0 0 0
45 1 1.6954358602681368e+00 3.0467576136550663e+00 1.7407933358924672e+00 0 0 0
8 1 3.1018040973397003e+00 1.7167999196606196e+00 2.0978269898869759e-01 0 0 0
53 1 7.0183424966441654e+00 3.3046793919051907e+00 1.6954658030406387e+00 0 0 0
16 1 8.3720761079656256e+00 1.9380424826771954e+00 2.1771236327997739e-01 0 0 0
57 1 9.7992986739507035e+00 3.2966648709090824e+00 -1.0304336668719678e+00 0 0 0
975 1 6.8847267592866288e+00 2.2178127521396785e+01 9.6861201664063632e+00 0 0 0
42 1 3.0419999630311539e-01 4.5250434269355813e+00 4.6274589946805567e-01 0 0 0
51 1 4.3350318330613486e+00 5.9995821382859837e+00 1.8074453384225597e+00 0 0 0
50 1 5.7334780197608701e+00 4.6751596902937340e+00 3.0898617057751637e-01 0 0 0
21 1 1.2386850633050679e+01 -2.1421317052222193e+00 1.7272466331828080e+00 0 0 0
58 1 1.1171220230354640e+01 4.5548731217103429e+00 3.2980012727164215e-01 0 0 0
59 1 9.7447421504454237e+00 5.8714602868749646e+00 1.6423317524702128e+00 0 0 0
85 1 1.5375580921149510e+00 8.7016417981677741e+00 1.6540325836749912e+00 0 0 0
48 1 2.9903445273484208e+00 7.3385748856975690e+00 2.5704247391306412e-01 0 0 0
56 1 8.4126555277452351e+00 7.3194145803102062e+00 3.4817088681663122e-01 0 0 0
93 1 6.9703745852552990e+00 8.7027523497792778e+00 1.6610274121602187e+00 0 0 0
82 1 1.0983891157368618e-01 9.9685145646256235e+00 1.7784696555328630e-01 0 0 0
809 1 4.2813726043743099e+00 -2.1724000605251277e+00 9.9484236699119712e+00 0 0 0
90 1 5.6666295658950450e+00 9.9748780376752197e+00 2.3775027017942915e-01 0 0 0
91 1 4.3071720693843565e+00 1.1388641377167199e+01 1.8161639528831699e+00 0 0 0
88 1 2.9088125055277358e+00 1.2778307540100938e+01 3.7480688425111525e-01 0 0 0
96 1 8.4244092157880797e+00 1.2723171355809965e+01 2.3272907019721775e-01 0 0 0
98 1 1.1182064701420540e+01 1.0103750792452791e+01 2.6165864601936278e-01 0 0 0
99 1 9.7581213336811299e+00 1.1439834169553004e+01 1.6028345381191442e+00 0 0 0
968 1 3.1882985541436777e+00 2.3627036880365573e+01 1.1037599483410629e+01 0 0 0
125 1 1.4966689288458046e+00 1.4154954678412571e+01 1.4997470032222455e+00 0 0 0
122 1 1.8214502047620465e-01 1.5557010716809261e+01 1.9042805232689375e-01 0 0 0
130 1 5.7750899314227819e+00 1.5386057681879837e+01 3.4180876999625037e-01 0 0 0
133 1 7.0056023039744568e+00 1.3984649147946385e+01 1.7225653969376598e+00 0 0 0
137 1 9.8664360291530731e+00 1.4052316303980394e+01 -1.0347729654330320e+00 0 0 0
141 1 1.2448254522123388e+01 1.4194184520019469e+01 1.3593411897764665e+00 0 0 0
138 1 1.1106156076296219e+01 1.5522663208423440e+01 8.3883331225652252e-02 0 0 0
131 1 4.4462004842863516e+00 1.6909054733703922e+01 1.5733434988896422e+00 0 0 0
128 1 3.1116622501841098e+00 1.8295673359706132e+01 1.9477156999247847e-01 0 0 0
135 1 7.0218458448160419e+00 1.6795128213877923e+01 -1.0162750775341465e+00 0 0 0
136 1 8.4012804037709010e+00 1.8321676729494197e+01 1.4993716180136868e-01 0 0 0
139 1 9.8944609769974132e+00 1.6872538888448201e+01 1.4893806878732194e+00 0 0 0
162 1 3.5927709373136074e-01 2.0894323148509919e+01 9.5062115626502727e-02 0 0 0
165 1 1.7983157621550898e+00 1.9613699755641750e+01 1.6065573829676327e+00 0 0 0
1013 1 7.0312612237100183e+00 2.4939609320305159e+01 1.2471854884020125e+01 0 0 0
170 1 5.8330844935985349e+00 2.0948665829999765e+01 1.2512414227791135e-01 0 0 0
173 1 7.0567754768976192e+00 1.9634809617767775e+01 1.5160580543290743e+00 0 0 0
178 1 1.1049663586756884e+01 2.0905285195062117e+01 2.3982318545204404e-01 0 0 0
181 1 1.2391283317132547e+01 1.9554353463091037e+01 1.5373022424759977e+00 0 0 0
405 1 1.6629529985962188e+00 -2.0970006990890013e+00 7.1426999782739493e+00 0 0 0
843 1 -9.1765331047239584e-01 6.0333928666482626e+00 1.2384493672519461e+01 0 0 0
171 1 4.4335830391715580e+00 2.2299523515493455e+01 1.3727429259493387e+00 0 0 0
168 1 2.8912384168715497e+00 2.3718931262077692e+01 7.5959814136758189e-02 0 0 0
176 1 8.4546167772892833e+00 2.3597832151586818e+01 2.4275741693744810e-01 0 0 0
179 1 9.7669807499756676e+00 2.2297778497605151e+01 1.5979752262301221e+00 0 0 0
183 1 1.2384973240550540e+01 2.2240859916067741e+01 -1.0625393302725925e+00 0 0 0
221 1 1.2383383296117659e+01 2.4958441022849499e+01 1.6252374786684158e+00 0 0 0
407 1 1.6433979642137653e+00 5.6949914384998235e-01 4.2115002161142430e+00 0 0 0
6 1 3.0896765616187238e+00 -7.7851776141510420e-01 2.8350906253664188e+00 0 0 0
410 1 5.8080078949909550e+00 -8.7697311314863180e-01 5.7600691079748332e+00 0 0 0
14 1 8.3870957365003083e+00 -7.6545927396269842e-01 3.0448964472871216e+00 0 0 0
415 1 6.9952924718756160e+00 5.9454018129559649e-01 4.3163287665233954e+00 0 0 0
961 1 -9.5156770565613868e-01 1.9634801181216755e+01 9.7527650404027089e+00 0 0 0
418 1 1.1186997742088161e+01 -8.5032785254425880e-01 5.7408875500867387e+00 0 0 0
4 1 2.5120032534351350e-01 1.7872444498874682e+00 3.0164370504369340e+00 0 0 0
449 1 4.1691418617966614e+00 3.3591718074396195e+00 4.5205772907282924e+00 0 0 0
408 1 2.9853601080893988e+00 1.7659032974030431e+00 5.8533164603427501e+00 0 0 0
12 1 5.6772337708181384e+00 1.9181692591632125e+00 3.0431932512913367e+00 0 0 0
457 1 9.7374799139877553e+00 3.4217094425324133e+00 4.5120772216209799e+00 0 0 0
20 1 1.1078995198148510e+01 1.8879888726464829e+00 3.1574361412480036e+00 0 0 0
447 1 1.5098135348832338e+00 5.9592055691658654e+00 4.4112404649705024e+00 0 0 0
442 1 2.8984257653536777e-01 4.5550477628993304e+00 5.7817779093199002e+00 0 0 0
46 1 2.8412208436089244e+00 4.6343529157130856e+00 3.0875964306355055e+00 0 0 0
54 1 8.3631384534393529e+00 4.7056297679110761e+00 3.1129291112592283e+00 0 0 0
455 1 7.0204867079176392e+00 5.9497747798798901e+00 4.4174507168699000e+00 0 0 0
44 1 1.2096204505742181e-01 7.2631020521219964e+00 2.9336940245325498e+00 0 0 0
481 1 -1.0267364024052335e+00 8.7234934469542758e+00 4.3794333125091995e+00 0 0 0
489 1 4.2908077470052275e+00 8.6939280075368579e+00 4.4614178187440228e+00 0 0 0
448 1 2.7586085864412486e+00 7.3761491145711107e+00 5.9270129139202758e+00 0 0 0
52 1 5.6123370564364929e+00 7.4153083314610591e+00 3.0769250480115922e+00 0 0 0
456 1 8.5200553130077576e+00 7.1305698472267069e+00 5.7051374997524613e+00 0 0 0
60 1 1.1078832814311884e+01 7.3683999682109240e+00 2.9642006419910865e+00 0 0 0
497 1 9.7349853762221219e+00 8.6525092061644333e+00 4.3029919358182802e+00 0 0 0
482 1 1.5868193002307965e-01 1.0197572732530810e+01 5.7326811892464820e+00 0 0 0
487 1 1.5957070464422143e+00 1.1396453062663159e+01 4.3125083155334378e+00 0 0 0
84 1 1.7352817160735118e-01 1.2892385208283475e+01 3.0668036311265521e+00 0 0 0
86 1 2.8692264685707687e+00 9.9777416938253367e+00 3.0196060194628722e+00 0 0 0
490 1 5.6688864174064779e+00 9.9778957142887350e+00 5.7513044787814156e+00 0 0 0
92 1 5.7048926348959368e+00 1.2612668231626799e+01 3.1031387323246347e+00 0 0 0
94 1 8.3343640552256364e+00 9.9938404385063642e+00 2.8635409094656397e+00 0 0 0
495 1 7.0953200311960902e+00 1.1275283467193667e+01 4.4757477561073618e+00 0 0 0
496 1 8.5072421319512035e+00 1.2635779580396564e+01 5.6480998429115497e+00 0 0 0
498 1 1.1261201413976403e+01 1.0080327070239923e+01 5.6871298059603239e+00 0 0 0
967 1 1.7246200427554503e+00 2.2320026307102122e+01 9.6278486106371979e+00 0 0 0
100 1 1.1179137585304005e+01 1.2821700466925448e+01 2.8808862970748224e+00 0 0 0
529 1 4.3116044292005995e+00 1.4148691933839418e+01 4.3295203434586655e+00 0 0 0
126 1 3.0944722032368919e+00 1.5464021596256197e+01 2.8530969778062287e+00 0 0 0
530 1 5.8673168771179052e+00 1.5443776477825040e+01 5.7379344420676164e+00 0 0 0
134 1 8.3928561792385512e+00 1.5524920743677143e+01 2.9430382826645549e+00 0 0 0
537 1 9.7155157419087175e+00 1.4041439079913903e+01 4.2402146851213587e+00 0 0 0
538 1 1.1095743071225252e+01 1.5225639359263122e+01 5.6327875462007206e+00 0 0 0
527 1 1.6241570385607169e+00 1.6909735710281520e+01 4.3240757682651036e+00 0 0 0
124 1 3.3399479143988559e-01 1.8276559325600164e+01 2.9087656851438499e+00 0 0 0
132 1 5.7953979599404120e+00 1.8215896790703674e+01 2.8831617754071250e+00 0 0 0
535 1 7.0908421674532631e+00 1.6807008177047784e+01 4.2426412891619805e+00 0 0 0
543 1 1.2354139324626123e+01 1.6588955951158152e+01 4.2581193921060381e+00 0 0 0
140 1 1.1196915319114881e+01 1.8036203747188232e+01 2.9822852672822675e+00 0 0 0
978 1 1.1095314837824848e+01 2.0832411909523348e+01 1.0988968151291274e+01 0 0 0
569 1 4.5009614749173901e+00 1.9621117458492119e+01 4.2565200667106717e+00 0 0 0
166 1 3.1735105228606963e+00 2.1029362000577752e+01 2.9492639134025151e+00 0 0 0
570 1 5.6415670131994062e+00 2.1034337324734150e+01 5.5990376363794967e+00 0 0 0
174 1 8.3953278804391900e+00 2.0872620237669864e+01 2.9448436692786810e+00 0 0 0
577 1 9.7877906833290194e+00 1.9476973465864834e+01 4.1882349283406795e+00 0 0 0
164 1 4.0399578701449923e-01 2.3649894507546325e+01 2.9863209917363247e+00 0 0 0
567 1 1.7499774424316188e+00 2.2255447508611386e+01 4.2125850647304217e+00 0 0 0
172 1 5.5804600784741742e+00 2.3776660004283944e+01 2.7611431901855039e+00 0 0 0
983 1 1.2376247914793501e+01 2.2297990050173915e+01 9.7691143632224229e+00 0 0 0
575 1 6.8683279174106247e+00 2.2363905167319523e+01 4.1366022326173928e+00 0 0 0
180 1 1.1051063807208584e+01 2.3610760027255765e+01 3.0767100807148338e+00 0 0 0
977 1 9.7041633099818743e+00 1.9486333151156675e+01 9.7490334344276910e+00 0 0 0
402 1 2.7618222648123475e-01 -7.1595038953034551e-01 5.7380155968944422e+00 0 0 0
411 1 4.3292207367222844e+00 4.5731303390630085e-01 7.1371207902745946e+00 0 0 0
406 1 2.9774711492857473e+00 -9.0645512569952114e-01 8.5683467833892806e+00 0 0 0
413 1 7.1646099884205494e+00 -2.1761770378328928e+00 7.1725479277710251e+00 0 0 0
414 1 8.4869698695363933e+00 -8.7970078731984824e-01 8.5214176851465506e+00 0 0 0
419 1 9.8872336337134268e+00 4.5207362565044334e-01 7.1038542449430242e+00 0 0 0
404 1 2.5697693946859057e-01 1.8258392712156057e+00 8.4558345831789925e+00 0 0 0
445 1 1.7120903479189888e+00 3.1732817064557470e+00 7.1287589849472086e+00 0 0 0
416 1 8.3854823954968012e+00 1.8789070471121019e+00 5.7377872391671989e+00 0 0 0
412 1 5.6708680109287464e+00 1.8694193211621239e+00 8.4315314950464817e+00 0 0 0
453 1 7.0943436267992608e+00 3.2745347451138378e+00 7.1734699713298777e+00 0 0 0
420 1 1.1034011852688421e+01 1.8623501243393195e+00 8.5075302511386148e+00 0 0 0
443 1 -1.0343159984131056e+00 6.0067142366919635e+00 7.1228627075781441e+00 0 0 0
451 1 4.2877834565014945e+00 5.8594241976672627e+00 7.1938369387447167e+00 0 0 0
446 1 3.0638050406241248e+00 4.4804363566001619e+00 8.5368730966934709e+00 0 0 0
450 1 5.6840306128223395e+00 4.6392195203175399e+00 5.7928452244173823e+00 0 0 0
454 1 8.4459922926778521e+00 4.6271522817864321e+00 8.5229495807465128e+00 0 0 0
458 1 1.1239108516884892e+01 4.6679394693379717e+00 5.9394631935769517e+00 0 0 0
459 1 9.8732893881125374e+00 5.8494574205011043e+00 7.2405009145710908e+00 0 0 0
444 1 3.9094324361993821e-01 7.4486834126737271e+00 8.4742264612460065e+00 0 0 0
485 1 1.5819779645091365e+00 8.9996475395535374e+00 7.1203247903032967e+00 0 0 0
452 1 5.5876520961458018e+00 7.1451834441962587e+00 8.5438211336070413e+00 0 0 0
493 1 7.0238628500095643e+00 8.3483998275192466e+00 7.0180409465594957e+00 0 0 0
460 1 1.1229924459509709e+01 7.2051584439002987e+00 8.4509375277448591e+00 0 0 0
484 1 1.4739898923477751e-01 1.2774374183094558e+01 8.5764880364420666e+00 0 0 0
488 1 3.0530931818752300e+00 1.2762521578911663e+01 5.7416378767813390e+00 0 0 0
486 1 3.0385083508095474e+00 1.0119228986716900e+01 8.5086447714316691e+00 0 0 0
491 1 4.5119346571220564e+00 1.1463641420981734e+01 7.1571593288040525e+00 0 0 0
492 1 5.7553043888295443e+00 1.2872106890043268e+01 8.5261104649131809e+00 0 0 0
494 1 8.3264168496337696e+00 9.8485476133465131e+00 8.2499869105289534e+00 0 0 0
499 1 9.7274386113213200e+00 1.1279506154492465e+01 6.9817780012368731e+00 0 0 0
500 1 1.1178716442565589e+01 1.2684860503748483e+01 8.3723887587436003e+00 0 0 0
522 1 2.8641823078111783e-01 1.5540804278651780e+01 5.7208519153325863e+00 0 0 0
525 1 1.5686235102437129e+00 1.4039672094734639e+01 7.0851036421153708e+00 0 0 0
526 1 2.9005644906910759e+00 1.5440905815040262e+01 8.3171073984258950e+00 0 0 0
533 1 7.2613940497478708e+00 1.4053501792278389e+01 7.1155100980794996e+00 0 0 0
534 1 8.4866436690031115e+00 1.5507664241979771e+01 8.3775257353226298e+00 0 0 0
973 1 7.2214760372315867e+00 1.9396755729076716e+01 1.2272455561976273e+01 0 0 0
524 1 2.2416214710602178e-01 1.8292008763440055e+01 8.3300530031814670e+00 0 0 0
528 1 3.0301300781075891e+00 1.8198368535257117e+01 5.5812438470241155e+00 0 0 0
531 1 4.3714695143341382e+00 1.6787388919260710e+01 7.0368312877846515e+00 0 0 0
532 1 5.6268962896670862e+00 1.8236201728361007e+01 8.3077072165475219e+00 0 0 0
536 1 8.3991722630425869e+00 1.8131890191667157e+01 5.5958929063072835e+00 0 0 0
539 1 9.7584783010488234e+00 1.6842389324716724e+01 6.9772157001802197e+00 0 0 0
540 1 1.1113480420675817e+01 1.8207843394109453e+01 8.3222623000709479e+00 0 0 0
562 1 3.4727995580413173e-01 2.0935353632315881e+01 5.5536947096067442e+00 0 0 0
565 1 1.7375555414668828e+00 1.9647351987671261e+01 7.0365805428391663e+00 0 0 0
566 1 3.0650310093505388e+00 2.1008711845702749e+01 8.3424475020904509e+00 0 0 0
573 1 7.0617571215819623e+00 1.9578191802848803e+01 6.8925363517088902e+00 0 0 0
574 1 8.3143575709041215e+00 2.0951064547434942e+01 8.3137865428133981e+00 0 0 0
578 1 1.1061358442750601e+01 2.0941208607193651e+01 5.5635621483271462e+00 0 0 0
564 1 3.7360989873896544e-01 2.3595016552220777e+01 8.2400453922796029e+00 0 0 0
605 1 1.7191178248569010e+00 2.4899977779507008e+01 7.0036719230256281e+00 0 0 0
568 1 3.0017331792251030e+00 2.3647910547946651e+01 5.5775039582834323e+00 0 0 0
571 1 4.3106918275277755e+00 2.2409789879600954e+01 6.9347582627327622e+00 0 0 0
572 1 5.5384578814000358e+00 2.3696629847582926e+01 8.5071429318466922e+00 0 0 0
576 1 8.2312507688725489e+00 2.3682857409937121e+01 5.4781352148218350e+00 0 0 0
579 1 9.6567649724388627e+00 2.2349014731575398e+01 6.8291436356102393e+00 0 0 0
580 1 1.1026379174575689e+01 2.3655950701946317e+01 8.3795574251401383e+00 0 0 0
802 1 2.0126666556291803e-01 -9.1995752684700682e-01 1.1209906275926798e+01 0 0 0
807 1 1.5331618925539339e+00 4.4571289938209008e-01 9.8532286265509192e+00 0 0 0
970 1 5.7588616008962195e+00 2.0798362727700813e+01 1.1091403612998748e+01 0 0 0
810 1 5.6549476070927174e+00 -7.8949163871126560e-01 1.1152839870855715e+01 0 0 0
815 1 7.0152468120762377e+00 6.0171914146851835e-01 9.6747943081903038e+00 0 0 0
969 1 4.2869278810573395e+00 1.9472786831529049e+01 9.7001700114336256e+00 0 0 0
613 1 6.9891173376730782e+00 2.4891843589832565e+01 7.1103565304072731e+00 0 0 0
823 1 1.2491908051139687e+01 4.2823503123769291e-01 9.6973520986587758e+00 0 0 0
818 1 1.1205479906121454e+01 -7.8913304099756776e-01 1.1256713534916319e+01 0 0 0
962 1 3.5292026794861109e-01 2.1119834250317147e+01 1.1121212852064742e+01 0 0 0
808 1 2.9230226175763487e+00 1.8732238282389131e+00 1.1215808565477099e+01 0 0 0
849 1 4.3383844744648217e+00 3.1307202257626612e+00 9.9624349459374795e+00 0 0 0
409 1 4.3465412386420876e+00 -2.1433591211181948e+00 4.2925898488231153e+00 0 0 0
816 1 8.4070990391306584e+00 1.8473760410637323e+00 1.1142581934703076e+01 0 0 0
943 1 1.2439976155318789e+01 1.6787779911464778e+01 9.7330876103197603e+00 0 0 0
857 1 9.7509036677426142e+00 3.2265834568910932e+00 9.8843098753502829e+00 0 0 0
847 1 1.6931061890231713e+00 6.1086862431771305e+00 9.8365344341520640e+00 0 0 0
842 1 4.0398327263510170e-01 4.4841975827546072e+00 1.1005332427442553e+01 0 0 0
851 1 4.2752027918687086e+00 5.8454352802414364e+00 1.2485564968638556e+01 0 0 0
850 1 5.7703584963952137e+00 4.4406338493789148e+00 1.1273689023860854e+01 0 0 0
855 1 7.0306836437337665e+00 5.9298055529373590e+00 9.9360690875581188e+00 0 0 0
858 1 1.1244199417130666e+01 4.4853290148518239e+00 1.1280238359014971e+01 0 0 0
885 1 1.7189561144174086e+00 8.6886798046765197e+00 1.2477400268518213e+01 0 0 0
881 1 -1.0679853163170410e+00 8.6426764730123100e+00 9.8910804379717163e+00 0 0 0
848 1 3.2302660154038576e+00 7.3645892986143107e+00 1.1259290845161166e+01 0 0 0
889 1 4.3789983295958761e+00 8.7779538361427285e+00 9.8542874283398572e+00 0 0 0
501 1 1.2464920899508412e+01 8.5047361752715780e+00 6.9898502678534831e+00 0 0 0
856 1 8.4302077738089043e+00 7.4798391455413586e+00 1.1254438696257855e+01 0 0 0
897 1 9.7291367600020902e+00 8.5591127320987788e+00 9.6862082748024534e+00 0 0 0
887 1 1.6015788337004755e+00 1.1417713417242908e+01 9.8778496939052065e+00 0 0 0
882 1 3.1395100187066977e-01 1.0075128081889307e+01 1.1236668005128799e+01 0 0 0
888 1 3.0826113143889589e+00 1.2757514374271288e+01 1.1247260206514438e+01 0 0 0
403 1 -1.0465983527372948e+00 5.0116254722298104e-01 7.1336529593477005e+00 0 0 0
896 1 8.5561365880772069e+00 1.2642420886310417e+01 1.1150752221871560e+01 0 0 0
895 1 7.1706937180994252e+00 1.1376631946037911e+01 9.7839595335969385e+00 0 0 0
890 1 5.8088385193536638e+00 1.0110946293276278e+01 1.1213023837086263e+01 0 0 0
903 1 1.2302267565984721e+01 1.1179105646667473e+01 9.7646103944349676e+00 0 0 0
898 1 1.1051761440527175e+01 9.8378030337575098e+00 1.1083905456290523e+01 0 0 0
925 1 1.6253026761354594e+00 1.4138838350067221e+01 1.2392208501670240e+01 0 0 0
922 1 2.2022125936687370e-01 1.5467089098463427e+01 1.1076470958762629e+01 0 0 0
929 1 4.2583498185490045e+00 1.4199100615153935e+01 9.8678962766474800e+00 0 0 0
930 1 5.6494904202008929e+00 1.5508562440141537e+01 1.1176643631381847e+01 0 0 0
938 1 1.1278513751918782e+01 1.5342085123162249e+01 1.1185896609770406e+01 0 0 0
463 1 1.2498468829538426e+01 5.9178478813584938e+00 4.4327952890280828e+00 0 0 0
937 1 9.8032625986012185e+00 1.4005421052954288e+01 9.8435348371691109e+00 0 0 0
927 1 1.4859267345067064e+00 1.6838514863736791e+01 9.6712490406952529e+00 0 0 0
928 1 2.9293095790938040e+00 1.8034452262022985e+01 1.1108766510448335e+01 0 0 0
935 1 7.0276511862524531e+00 1.6800766587676723e+01 9.7680068371745392e+00 0 0 0
936 1 8.5707607006535316e+00 1.8026910842259603e+01 1.1063345400511293e+01 0 0 0
63 1 1.2494180804705415e+01 6.0404730050457625e+00 -9.4006759079145596e-01 0 0 0
83 1 -1.1017943530522487e+00 1.1525622391654014e+01 1.6014814124877332e+00 0 0 0
441 1 -1.0979650383424904e+00 3.1403200847311528e+00 4.4741030601242970e+00 0 0 0
963 1 -1.0941381541316950e+00 2.2359715847653607e+01 1.2458474869902915e+01 0 0 0
163 1 -9.7066505350449006e-01 2.2305906822623427e+01 1.6014504321372731e+00 0 0 0
859 1 9.9426540730925534e+00 5.8700003370493343e+00 1.2486127851591865e+01 0 0 0
899 1 9.8290386746324625e+00 1.1218672264958064e+01 1.2472628040175119e+01 0 0 0
933 1 7.0932380374785895e+00 1.4043281613025895e+01 1.2428699610391774e+01 0 0 0
939 1 9.9986587568192835e+00 1.6773044402258012e+01 1.2414170358246173e+01 0 0 0
965 1 1.6223015888667398e+00 1.9514222661778472e+01 1.2367557221332515e+01 0 0 0
981 1 1.2468247459568831e+01 1.9495164603581163e+01 1.2412541752813830e+01 0 0 0
17 1 9.8134192372023570e+00 -2.1703273835232650e+00 -1.0613894024081993e+00 0 0 0
971 1 4.4773666994054917e+00 2.2292943579758351e+01 1.2447609897254607e+01 0 0 0
1005 1 1.7716660342008030e+00 2.4860387933304626e+01 1.2473581556029922e+01 0 0 0
979 1 9.8411667309937148e+00 2.2128662946779308e+01 1.2444382198458868e+01 0 0 0
7 1 1.5807156777342248e+00 5.0894725327270218e-01 -1.0720335734674968e+00 0 0 0
49 1 4.4163035560669339e+00 3.2276372895564789e+00 -9.9629984375021152e-01 0 0 0
47 1 1.7146389860550897e+00 5.8119837347992718e+00 -1.0009187010466611e+00 0 0 0
97 1 9.7601323433523302e+00 8.8186269787826106e+00 -9.5231128900210038e-01 0 0 0
95 1 6.9649171137991486e+00 1.1409135288761453e+01 -1.0457096637696530e+00 0 0 0
129 1 4.3145279152178091e+00 1.4140971522365415e+01 -9.6209085618391654e-01 0 0 0
1207 1 1.6792696509739080e+00 6.0148697320550260e-01 1.5311538662451513e+01 0 0 0
1683 1 -1.0748973511135809e+00 1.1378224365004733e+01 2.3432554142827559e+01 0 0 0
806 1 3.0501623816553929e+00 -8.1990422773417970e-01 1.3897657597076416e+01 0 0 0
811 1 4.3301008601173967e+00 5.2186007399577894e-01 1.2588015587140418e+01 0 0 0
814 1 8.3044544085112335e+00 -9.2700319933670783e-01 1.3963755100893385e+01 0 0 0
1215 1 6.9316564239630294e+00 3.1041109551452101e-01 1.5340599756443863e+01 0 0 0
804 1 2.2341155299532278e-01 1.8622751899889447e+00 1.3985819523472449e+01 0 0 0
845 1 1.5715431175675862e+00 3.1973262488560614e+00 1.2517541754753495e+01 0 0 0
1249 1 4.3843382504699768e+00 3.2869761170453544e+00 1.5331378595443415e+01 0 0 0
812 1 5.6540727794316412e+00 1.7643357120975962e+00 1.4005448253595997e+01 0 0 0
1257 1 9.6598349878140084e+00 3.1642356294619232e+00 1.5191202651128219e+01 0 0 0
820 1 1.1115838768030008e+01 1.8187341464466595e+00 1.3824419405396061e+01 0 0 0
1247 1 1.6555351770651410e+00 5.9228310265306758e+00 1.5228921061853756e+01 0 0 0
846 1 2.9725814774694674e+00 4.5398094278361123e+00 1.3866149632745044e+01 0 0 0
854 1 8.3815744174856111e+00 4.6234581885526795e+00 1.3850655004798298e+01 0 0 0
1255 1 7.1409844288956839e+00 5.8535472997495628e+00 1.5360639873931399e+01 0 0 0
1263 1 1.2489844923511384e+01 5.9766932594253452e+00 1.5452451647872126e+01 0 0 0
1813 1 7.2173782561776951e+00 2.4946670444895684e+01 2.3232482576094643e+01 0 0 0
844 1 3.4795823969672141e-01 7.3877720399837701e+00 1.3896981970763342e+01 0 0 0
1281 1 -1.0920773286940906e+00 8.6828348332382514e+00 1.5235683424617127e+01 0 0 0
852 1 5.8149294771499562e+00 7.2126773069414956e+00 1.3861331611159953e+01 0 0 0
1289 1 4.4300930703714485e+00 8.6410334002829075e+00 1.5234489999985998e+01 0 0 0
860 1 1.1210720450532770e+01 7.2209535140427148e+00 1.3931155079707807e+01 0 0 0
1297 1 9.8608959905090856e+00 8.6324145586573131e+00 1.5253127813135736e+01 0 0 0
1287 1 1.7149633413378347e+00 1.1431688144154297e+01 1.5263225141564016e+01 0 0 0
884 1 2.0804797997332833e-01 1.2828848512266017e+01 1.3945414692991989e+01 0 0 0
886 1 3.0494699741046389e+00 1.0028540187346634e+01 1.3935174239656922e+01 0 0 0
892 1 5.7072783838411629e+00 1.2683599565023135e+01 1.3942985654162939e+01 0 0 0
1295 1 7.1813512533685717e+00 1.1424365961241925e+01 1.5304282950918218e+01 0 0 0
894 1 8.5293106771476630e+00 9.9732108841002880e+00 1.3901931927151287e+01 0 0 0
1303 1 1.2399955231328558e+01 1.1316295445728937e+01 1.5142156330377890e+01 0 0 0
900 1 1.0995505396144861e+01 1.2767942272349829e+01 1.3906613155285962e+01 0 0 0
1801 1 -9.6508808659676859e-01 2.4933805995354369e+01 2.0586980111435224e+01 0 0 0
1321 1 -1.0256209483504728e+00 1.4192705653669135e+01 1.5355102238465042e+01 0 0 0
1329 1 4.3693356228212483e+00 1.4121079758065523e+01 1.5174425467477825e+01 0 0 0
926 1 2.9340525824170745e+00 1.5431484790478295e+01 1.3912092651259700e+01 0 0 0
934 1 8.4115950104525385e+00 1.5520586489640138e+01 1.3804312853057763e+01 0 0 0
1617 1 9.7339649209722978e+00 -2.0149325981032291e+00 2.0883298627071930e+01 0 0 0
1337 1 9.7138572725021497e+00 1.4239487479548352e+01 1.5223779028954416e+01 0 0 0
1327 1 1.4661766204714179e+00 1.6813401582284680e+01 1.5169181752985230e+01 0 0 0
924 1 2.4235339579823312e-01 1.8119283568721368e+01 1.3769336940346264e+01 0 0 0
931 1 4.3214869475668882e+00 1.6811656444482189e+01 1.2560635364177173e+01 0 0 0
932 1 5.8293576564361924e+00 1.8183914587893703e+01 1.3696985318493775e+01 0 0 0
1335 1 7.1486823202657090e+00 1.6782241094539838e+01 1.5128473701404078e+01 0 0 0
940 1 1.1227885132834636e+01 1.8118599882920858e+01 1.3866674210604931e+01 0 0 0
1601 1 -1.0032676654822048e+00 -2.2068083701193331e+00 2.0706968816346173e+01 0 0 0
1361 1 -1.0809975387636728e+00 1.9484346958531713e+01 1.5030791228805118e+01 0 0 0
1205 1 1.5621664553091787e+00 -2.0682219906277481e+00 1.7951030907033331e+01 0 0 0
1369 1 4.4937966918758248e+00 1.9454486120421635e+01 1.5191699493840959e+01 0 0 0
966 1 3.1352071393616505e+00 2.0702579585114986e+01 1.3654777055380265e+01 0 0 0
974 1 8.4254290293204495e+00 2.0673903624758321e+01 1.3746275778017178e+01 0 0 0
1377 1 9.9096228299034390e+00 1.9506314406107101e+01 1.5127352974687698e+01 0 0 0
1409 1 4.4900098717450501e+00 2.4842589337787306e+01 1.5249215245851074e+01 0 0 0
964 1 3.6268382334257393e-01 2.3626590016903471e+01 1.4008082014899333e+01 0 0 0
1367 1 1.7855255537593975e+00 2.2134336353533445e+01 1.5041534434214688e+01 0 0 0
972 1 5.8420495961903569e+00 2.3403935766211813e+01 1.3931450094468577e+01 0 0 0
1401 1 -1.0834713568743897e+00 2.4961251436117823e+01 1.5267775181165840e+01 0 0 0
1375 1 7.2136523051144481e+00 2.2013547040945419e+01 1.5265355235385361e+01 0 0 0
980 1 1.1091491003772774e+01 2.3560353228324644e+01 1.3777160597152454e+01 0 0 0
1780 1 1.1278253704030725e+01 2.3767482978426752e+01 2.4766800889451048e+01 0 0 0
1641 1 -1.0528063782113541e+00 3.1669961645671916e+00 2.0729227299380266e+01 0 0 0
1643 1 -1.0021313818047588e+00 5.9269298931579346e+00 2.3557709428083815e+01 0 0 0
1202 1 1.9510963172311774e-01 -7.2470706650808614e-01 1.6578652710123350e+01 0 0 0
1211 1 4.3694619249439439e+00 5.0503942224339027e-01 1.8080725913720254e+01 0 0 0
1206 1 3.0287597167219995e+00 -8.2338237209318044e-01 1.9452715679369511e+01 0 0 0
1210 1 5.6205970676477808e+00 -9.9839567308837052e-01 1.6753947236749092e+01 0 0 0
1214 1 8.3486861709998461e+00 -9.0066277696370300e-01 1.9391627336882244e+01 0 0 0
1218 1 1.1093615542958689e+01 -9.3591633152097786e-01 1.6572824095884066e+01 0 0 0
1219 1 9.9048428830710069e+00 4.1258550691607432e-01 1.7951269015915194e+01 0 0 0
1245 1 1.6513540548109074e+00 3.3061936050543168e+00 1.8202426854284660e+01 0 0 0
1208 1 3.0499025485708779e+00 1.9533344723948671e+00 1.6706741299773761e+01 0 0 0
1253 1 7.1129923013598999e+00 3.1586971088142284e+00 1.7969693150200037e+01 0 0 0
1216 1 8.4387805349247866e+00 1.6639982491033343e+00 1.6604074737823076e+01 0 0 0
1220 1 1.1277774049373974e+01 1.9926907828185838e+00 1.9298580765237954e+01 0 0 0
1242 1 3.1989464444477822e-01 4.5372534167501382e+00 1.6716044222290858e+01 0 0 0
1779 1 9.8437329494998096e+00 2.2353958642111845e+01 2.3371778578657938e+01 0 0 0
1251 1 4.5179880670711592e+00 6.0882332696372048e+00 1.7968830798504836e+01 0 0 0
1250 1 5.7442136904784888e+00 4.6089544506174001e+00 1.6634607566966228e+01 0 0 0
1246 1 3.1814330251907195e+00 4.6594162715815450e+00 1.9349310595201153e+01 0 0 0
1254 1 8.4696790880320876e+00 4.6288450388552063e+00 1.9284678954816698e+01 0 0 0
1258 1 1.0959490436615010e+01 4.6225632081840784e+00 1.6645587811368703e+01 0 0 0
1259 1 9.8210333745910567e+00 6.0575041815980297e+00 1.8065763809458694e+01 0 0 0
1285 1 1.6059635753435559e+00 8.6170371531251515e+00 1.7993262466463715e+01 0 0 0
1244 1 3.8815605767899242e-01 7.3183285168589034e+00 1.9492171962573341e+01 0 0 0
1248 1 3.0324942805580437e+00 7.3695625052618734e+00 1.6644260716695932e+01 0 0 0
1256 1 8.5119093036814384e+00 7.3793166164483326e+00 1.6731503848057677e+01 0 0 0
1293 1 7.0825145495815995e+00 8.7672953616759717e+00 1.8031755768455962e+01 0 0 0
1252 1 5.8020982717858329e+00 7.3516131522893611e+00 1.9498463017173560e+01 0 0 0
1301 1 1.2476439273492689e+01 8.6689410269942755e+00 1.7930756154685362e+01 0 0 0
1260 1 1.1170590535390138e+01 7.2526598124935280e+00 1.9452569715811638e+01 0 0 0
1283 1 -9.5807269824395780e-01 1.1322254091820131e+01 1.8070891585652877e+01 0 0 0
1282 1 3.4561498560858067e-01 1.0039331591933109e+01 1.6609870098910175e+01 0 0 0
1291 1 4.3632528814814089e+00 1.1458291546843503e+01 1.8113215926912591e+01 0 0 0
1290 1 5.6901858772127492e+00 1.0072701604213162e+01 1.6657645549836079e+01 0 0 0
1288 1 3.1707163027038323e+00 1.2695941485001113e+01 1.6584404537625286e+01 0 0 0
1296 1 8.4209957238491295e+00 1.2899092050793262e+01 1.6698193273526954e+01 0 0 0
1292 1 5.6274924486646078e+00 1.2781063340326126e+01 1.9519604522819868e+01 0 0 0
1294 1 8.4666040306776296e+00 1.0104712459405627e+01 1.9396087690461826e+01 0 0 0
1299 1 9.7800591282655667e+00 1.1494155101975768e+01 1.8073104802672272e+01 0 0 0
1298 1 1.1074262155198163e+01 1.0010716016469981e+01 1.6676786871708117e+01 0 0 0
1325 1 1.6954725459919382e+00 1.3979500008756677e+01 1.7849655653682202e+01 0 0 0
1322 1 3.4594595731289679e-01 1.5485893530272811e+01 1.6729861949523766e+01 0 0 0
1330 1 5.7395769286207692e+00 1.5508157154728112e+01 1.6498602365387686e+01 0 0 0
1333 1 6.9492779338074646e+00 1.4144810175253859e+01 1.8059680241410991e+01 0 0 0
1338 1 1.1076592901235259e+01 1.5561374982767383e+01 1.6526143748916613e+01 0 0 0
1324 1 1.2798721759802759e-01 1.8213089756597832e+01 1.9286240279509755e+01 0 0 0
1331 1 4.3005449685672126e+00 1.6803506108758786e+01 1.7845654947766430e+01 0 0 0
1328 1 3.0086650358864140e+00 1.8103589972458728e+01 1.6415236713497535e+01 0 0 0
1336 1 8.5868202625216625e+00 1.8161225813145759e+01 1.6535629734283262e+01 0 0 0
1339 1 9.8548826641161025e+00 1.6935561537401910e+01 1.7991382464247799e+01 0 0 0
1362 1 4.1470608061786324e-01 2.0758910332206945e+01 1.6439807571643463e+01 0 0 0
1365 1 1.6656307466206175e+00 1.9389193034293339e+01 1.7829795703925214e+01 0 0 0
1370 1 5.7306240139445386e+00 2.0874951783335909e+01 1.6605478327357009e+01 0 0 0