LAMMPS data file via write_data, version 30 Jul 2016, timestep = 2000

5000 atoms
1 atom types

-1.1037168688014471e+00 2.6103716868801385e+01 xlo xhi
-5.5185843440072304e+00 1.3051858434400725e+02 ylo yhi
-1.1037168688014471e+00 2.6103716868801385e+01 zlo zhi

Masses

1 28.0855

Atoms # atomic

4101 1 1.2373613176692340e+01 5.3334401302919954e+00 2.3536570462033421e+01 0 0 0
2 1 2.4654720200286792e-01 -4.1489158795273982e+00 2.8901516881010303e-01 0 0 0
3 1 -1.0178347312074552e+00 -2.8994398372917067e+00 1.7184102797846552e+00 0 0 0
11 1 4.4552254529660287e+00 -2.8196371930980888e+00 1.6859884570110690e+00 0 0 0
10 1 5.6710594827446350e+00 -4.1605816270453095e+00 3.6701913647282269e-01 0 0 0
18 1 1.0991734690218497e+01 -4.1710069669118655e+00 4.4785485504319028e-01 0 0 0
19 1 9.6613081629100783e+00 -2.6938867270287985e+00 1.6964851963533658e+00 0 0 0
41 1 -1.0165410276769442e+00 -2.3902391096682596e-01 -9.5136368276987526e-01 0 0 0
45 1 1.6124132396892557e+00 -4.7639004279674428e-02 1.7023065108175994e+00 0 0 0
42 1 2.3713741158277790e-01 1.3088927132705932e+00 3.4416084523788576e-01 0 0 0
49 1 4.5209895194821863e+00 4.3448875171152425e-03 -9.5450957385936042e-01 0 0 0
8 1 3.1153205194580105e+00 -1.4433012843642401e+00 4.5043584805798781e-01 0 0 0
53 1 7.2577967182035712e+00 -1.0640430313755200e-01 1.6714915331135252e+00 0 0 0
16 1 8.4068756567349752e+00 -1.3926901695312575e+00 2.9160422021210530e-01 0 0 0
58 1 1.1296920766482284e+01 1.2626270111989759e+00 2.7139691969406421e-01 0 0 0
4099 1 9.7468312268240158e+00 7.9915326097711921e+00 2.3434300140492560e+01 0 0 0
47 1 1.4948327349529644e+00 2.6372649091115119e+00 -1.0229347339568988e+00 0 0 0
51 1 4.3884244299215798e+00 2.6578633566682259e+00 1.6295707741031777e+00 0 0 0
48 1 3.0239976513694731e+00 4.0235069368987437e+00 3.8837663553152879e-01 0 0 0
50 1 5.8348966536135682e+00 1.2452518939689323e+00 3.4943638079483602e-01 0 0 0
55 1 7.0199250224036254e+00 2.6602622517250771e+00 2.6019922249503814e+01 0 0 -1
56 1 8.3693478431719317e+00 3.9867169893878804e+00 2.8808989464644152e-01 0 0 0
59 1 9.7109543596635142e+00 2.6265131998619955e+00 1.5779709265948945e+00 0 0 0
4100 1 1.1120851759601392e+01 9.5001264656124285e+00 2.4700203752111772e+01 0 0 0
82 1 2.4985318901584846e-01 6.7167529113916160e+00 2.8716824097363375e-01 0 0 0
85 1 1.5187044766768008e+00 5.3025017983383194e+00 1.7130018436044092e+00 0 0 0
89 1 4.0740421809554865e+00 5.3749680304005434e+00 -1.0769436530459131e+00 0 0 0
90 1 5.6043022300872449e+00 6.7457083872851173e+00 1.7909666819463946e-01 0 0 0
93 1 6.8751163924344745e+00 5.3802923425672047e+00 1.5437773854673362e+00 0 0 0
98 1 1.1194811391587807e+01 6.7482694385608886e+00 2.6973290537942152e-01 0 0 0
99 1 9.7544987625886925e+00 8.1537436811804724e+00 1.7695071861897385e+00 0 0 0
87 1 1.4850417298009120e+00 8.0503463516557066e+00 -9.8125508154759966e-01 0 0 0
125 1 1.6347119735298612e+00 1.0689377904269064e+01 1.7454374828894457e+00 0 0 0
91 1 4.2033492481610724e+00 7.9401988414206146e+00 1.7481767180524339e+00 0 0 0
88 1 2.9866490645667798e+00 9.4487655638844110e+00 3.4349322434907853e-01 0 0 0
133 1 7.0018598302664996e+00 1.0781710439855782e+01 1.5888666664181057e+00 0 0 0
96 1 8.4120967473696364e+00 9.3018835198934227e+00 3.2654106240642450e-01 0 0 0
103 1 1.2438328283094542e+01 8.1108340666530179e+00 -1.0928130245741858e+00 0 0 0
137 1 9.8381753769750517e+00 1.0783845779518121e+01 -9.5196198724667991e-01 0 0 0
1007 1 1.5891722378189790e+00 -2.9008361656439661e+00 4.3911447967527355e+00 0 0 0
6 1 3.0431901510648913e+00 -4.2528728423245497e+00 2.9942841954967117e+00 0 0 0
14 1 8.3367058309718285e+00 -4.1509781599739872e+00 3.0839541007497200e+00 0 0 0
1015 1 7.0615040646255185e+00 -2.7248591245409628e+00 4.3644273570563090e+00 0 0 0
4 1 2.3686890507014341e-01 -1.3848132568215303e+00 3.0438482926863930e+00 0 0 0
1049 1 4.2517230860649287e+00 1.8208449384272107e-01 4.3118172613248875e+00 0 0 0
46 1 2.9273560931324880e+00 1.4236907866245783e+00 2.9426071131422264e+00 0 0 0
12 1 5.6747621490181821e+00 -1.2400055510152652e+00 3.0819188541904268e+00 0 0 0
54 1 8.5307848689619217e+00 1.2278671115964142e+00 2.9947898931339503e+00 0 0 0
1057 1 9.8940529655148524e+00 -6.9253358046828042e-02 4.3636889438741209e+00 0 0 0
20 1 1.1226486112078348e+01 -1.4715311454828941e+00 2.9542620527524539e+00 0 0 0
44 1 3.9840628799869424e-02 3.9337445431916351e+00 2.9909739596390907e+00 0 0 0
1047 1 1.5016630331729428e+00 2.6103493844923555e+00 4.2034204125807193e+00 0 0 0
52 1 5.7600232079440357e+00 3.9796091752080036e+00 2.9754133784078665e+00 0 0 0
1055 1 7.1209873219182551e+00 2.5751005166027316e+00 4.4393028299543325e+00 0 0 0
60 1 1.1305405009092809e+01 3.9281904728704817e+00 2.9016569397529115e+00 0 0 0
95 1 7.1907986418656993e+00 8.0546110790483105e+00 2.6092446786636128e+01 0 0 -1
1087 1 1.4684159380953754e+00 8.0244093039918027e+00 4.4760849002627756e+00 0 0 0
1089 1 4.3802498168028965e+00 5.2862925998836445e+00 4.2817389622212039e+00 0 0 0
86 1 2.9045244524980238e+00 6.5664997025538057e+00 3.0472776912524102e+00 0 0 0
94 1 8.3521991862384120e+00 6.6206474362676104e+00 2.9338001436101990e+00 0 0 0
1095 1 7.1232196356414645e+00 8.0968418107124407e+00 4.4585255698923083e+00 0 0 0
1097 1 9.8262531807689033e+00 5.2828438856546622e+00 4.2177748947040898e+00 0 0 0
4133 1 7.2215031621814569e+00 1.0774855716095372e+01 2.3518683972417474e+01 0 0 0
84 1 2.4888914045816588e-01 9.3787289083210723e+00 3.0387952146990358e+00 0 0 0
1129 1 4.3835400881849207e+00 1.0667194861392717e+01 4.3487698490806856e+00 0 0 0
92 1 5.7124683158700611e+00 9.2831957940632162e+00 2.9839203476459133e+00 0 0 0
1137 1 9.8168695246016053e+00 1.0861299551387845e+01 4.3894042411481564e+00 0 0 0
100 1 1.1197690413413506e+01 9.4804525169204723e+00 3.2240185038725753e+00 0 0 0
1002 1 2.2919115545006499e-01 -4.2151472570133723e+00 5.8696533997908480e+00 0 0 0
129 1 4.4316613752480789e+00 1.0752931084277158e+01 -9.9457571702059866e-01 0 0 0
1011 1 4.2194408375528170e+00 -2.7579968308939846e+00 7.0484038435592051e+00 0 0 0
1010 1 5.6762852632996053e+00 -4.0608658540045663e+00 5.6897677891409311e+00 0 0 0
1013 1 7.0896816738153250e+00 -5.4127534441986009e+00 7.2363961765618665e+00 0 0 0
1018 1 1.1110298835007768e+01 -4.1587071934319324e+00 5.6626607271126188e+00 0 0 0
1019 1 9.8146896777680332e+00 -2.6329048665679462e+00 6.9801456189601785e+00 0 0 0
1021 1 1.2428002772792535e+01 -5.4195826588366680e+00 7.1085774776481241e+00 0 0 0
1045 1 1.5437647141921895e+00 -1.2546848340885364e-01 7.1467677653129122e+00 0 0 0
1042 1 1.7527472478072248e-01 1.2294834313783942e+00 5.6626975755750486e+00 0 0 0
1008 1 2.9738779233635246e+00 -1.3164671892228834e+00 5.6168328703989987e+00 0 0 0
1050 1 5.6457110248776923e+00 1.4419200235942804e+00 5.7314475831333755e+00 0 0 0
1053 1 6.9368678722711632e+00 1.2195591708855727e-01 7.0166020759116963e+00 0 0 0
1016 1 8.3922141001739927e+00 -1.2358287357899491e+00 5.6844481584112918e+00 0 0 0
4092 1 5.7546002157739977e+00 9.3492314070989284e+00 2.4800133227157584e+01 0 0 0
4125 1 1.7074256457161008e+00 1.0696425196531898e+01 2.3518075339275871e+01 0 0 0
1051 1 4.3266536591984686e+00 2.6973193614894573e+00 7.0015066509832868e+00 0 0 0
1048 1 2.8800447515633345e+00 3.9185385984772956e+00 5.6330152240940059e+00 0 0 0
1056 1 8.5939863588499232e+00 3.9731182769443532e+00 5.6869775641034126e+00 0 0 0
1058 1 1.1279995775726483e+01 1.2727306550691895e+00 5.6033377925328951e+00 0 0 0
1059 1 9.9574162349521202e+00 2.7239774969539043e+00 7.0539393125497964e+00 0 0 0
1082 1 1.8536594038202914e-01 6.7089959323325088e+00 5.7823396313719817e+00 0 0 0
1085 1 1.5492945903754283e+00 5.2217944503593188e+00 7.0448731498584927e+00 0 0 0
1090 1 5.5438788973673558e+00 6.6971874853806366e+00 5.7255055997377351e+00 0 0 0
1093 1 7.0859212460864924e+00 5.3465436380115907e+00 7.0198065107227423e+00 0 0 0
1098 1 1.1137531396413964e+01 6.6374350019866410e+00 5.7442136046529688e+00 0 0 0
4084 1 1.2391272762177426e-01 9.4787606432784273e+00 2.4976051782687165e+01 0 0 0
1125 1 1.6122488468228522e+00 1.0878110562375143e+01 7.0305639297076503e+00 0 0 0
1091 1 4.2275755742559964e+00 8.0177900499936339e+00 7.1540565036238721e+00 0 0 0
1088 1 2.9434135187045247e+00 9.4301253449830007e+00 5.7518622203145791e+00 0 0 0
1133 1 6.9703325156539844e+00 1.0769682396697338e+01 7.0670924763742144e+00 0 0 0
1096 1 8.4756168997419898e+00 9.3681730139114876e+00 5.8081093556818857e+00 0 0 0
1099 1 9.8889531274912095e+00 7.9281159241530590e+00 7.2042363323175351e+00 0 0 0
1141 1 1.2387360178713612e+01 1.0943908815387067e+01 7.2904894529579094e+00 0 0 0
2007 1 1.6171355776414207e+00 -2.8368861261039293e+00 9.8470665160614583e+00 0 0 0
1006 1 2.9309438716650984e+00 -4.1822420973815655e+00 8.4078269270236756e+00 0 0 0
3083 1 -1.1021330402018243e+00 7.9458365907136619e+00 1.7949974261999671e+01 0 0 0
1014 1 8.4572528250365036e+00 -3.9119035617570548e+00 8.4416140947659368e+00 0 0 0
2015 1 7.0438381684704519e+00 -2.5910011303101617e+00 9.7977019282221516e+00 0 0 0
2017 1 9.7097283341184006e+00 -5.4034533584994202e+00 9.7722124366616931e+00 0 0 0
2023 1 1.2428859543511908e+01 -2.7373315764906576e+00 9.8611420231468667e+00 0 0 0
2018 1 1.1228285059314249e+01 -4.1271817164239852e+00 1.1175234663067332e+01 0 0 0
1004 1 2.3432894624843337e-01 -1.5174871295504044e+00 8.4322981841237930e+00 0 0 0
1012 1 5.5743280812821920e+00 -1.3747440691709951e+00 8.4624940124906800e+00 0 0 0
1046 1 2.9586728450464124e+00 1.3275030639653276e+00 8.3622571578236560e+00 0 0 0
2049 1 4.3031129436715201e+00 1.0119036098592778e-02 9.8082630230855550e+00 0 0 0
1054 1 8.4900036915906227e+00 1.4501722187679291e+00 8.4017664084825316e+00 0 0 0
1020 1 1.1235416490119171e+01 -1.2880742534146388e+00 8.3703686279582055e+00 0 0 0
2057 1 9.8873801396930912e+00 1.4842907639704195e-01 9.7923490455567386e+00 0 0 0
2058 1 1.1326983366231859e+01 1.3042452081096747e+00 1.1211456897104384e+01 0 0 0
1044 1 3.1276806049302824e-01 3.9019659573583372e+00 8.4193272399560808e+00 0 0 0
2047 1 1.7113869642683737e+00 2.6481859157155685e+00 9.8170508408355683e+00 0 0 0
1052 1 5.7890169976125643e+00 4.0290245604700070e+00 8.4022450725221489e+00 0 0 0
2055 1 7.1172082953832865e+00 2.6777842820548412e+00 9.9063392863124431e+00 0 0 0
1060 1 1.1208845259882427e+01 4.0216300259134679e+00 8.6366000148835589e+00 0 0 0
97 1 9.6605596964543654e+00 5.3289072856509403e+00 2.6054399351788796e+01 0 0 -1
1086 1 2.7760734125228135e+00 6.7576573171937770e+00 8.4719670314615936e+00 0 0 0
2089 1 4.2275609005785197e+00 5.4641310290720018e+00 9.6706594715617271e+00 0 0 0
1094 1 8.4297667074692786e+00 6.6302934991370526e+00 8.4651658419231062e+00 0 0 0
2095 1 6.9992609097272931e+00 8.1064882553764246e+00 9.7815742905169980e+00 0 0 0
2097 1 9.6514361194907607e+00 5.2815132540501146e+00 9.9276645605319214e+00 0 0 0
2103 1 1.2322948753590470e+01 8.3153762502171027e+00 9.9627263535342614e+00 0 0 0
2087 1 1.5788870440299085e+00 8.1895776681995844e+00 9.9184990085604365e+00 0 0 0
1084 1 1.5903252445857005e-01 9.4487223220561063e+00 8.4410345154747048e+00 0 0 0
4094 1 8.3724564147824623e+00 6.6255239412746842e+00 2.4770598771169034e+01 0 0 0
2129 1 4.3933260440438415e+00 1.0853983725708321e+01 9.8153299245789327e+00 0 0 0
1092 1 5.6298634768745419e+00 9.3703255782115384e+00 8.4317568266517728e+00 0 0 0
1100 1 1.1088759666923053e+01 9.5187006148377051e+00 8.4152768925598664e+00 0 0 0
2137 1 9.6496795537720796e+00 1.0862440748371782e+01 9.8042576932713814e+00 0 0 0
2002 1 2.6444653825428127e-01 -4.1036313501768893e+00 1.1160425865077789e+01 0 0 0
2005 1 1.7548691367048264e+00 -5.4461952927206259e+00 1.2370538208721230e+01 0 0 0
2010 1 5.8140830714271905e+00 -4.2761248217379801e+00 1.1054539985521233e+01 0 0 0
2011 1 4.4109065983187747e+00 -2.9857475430912621e+00 1.2387567507991536e+01 0 0 0
2006 1 3.0230292362323907e+00 -4.1539400897102645e+00 1.3926811074520451e+01 0 0 0
2014 1 8.4339774363086697e+00 -4.1988234170030783e+00 1.3778506211022709e+01 0 0 0
2019 1 9.8445249871111482e+00 -2.7683103169636705e+00 1.2513632385997738e+01 0 0 0
2042 1 3.9673107383347794e-01 1.2710583787913770e+00 1.1361277141153440e+01 0 0 0
2045 1 1.7684447046300811e+00 -4.7988387807339661e-02 1.2612441479441246e+01 0 0 0
2004 1 2.6012325050467933e-01 -1.4631336476585513e+00 1.3876296517511694e+01 0 0 0
2008 1 3.0525415530252169e+00 -1.4822798085074069e+00 1.1154422228503945e+01 0 0 0
2050 1 5.6393910266400766e+00 1.3000666495470787e+00 1.1216004322041522e+01 0 0 0
2012 1 5.7021720463480428e+00 -1.4418626203072522e+00 1.3752237632671351e+01 0 0 0
2016 1 8.5509087536878958e+00 -1.3083921757388184e+00 1.1215119226023589e+01 0 0 0
2053 1 7.1042323342758982e+00 -9.8066231800064518e-02 1.2505736656612061e+01 0 0 0
2054 1 8.3688095186806599e+00 1.2614271467624907e+00 1.3893456916238497e+01 0 0 0
4093 1 6.9795500116492155e+00 5.2579756561536088e+00 2.3361986174764695e+01 0 0 0
2020 1 1.1192359543679856e+01 -1.4585220647340476e+00 1.3871844092450548e+01 0 0 0
2043 1 -9.7071977148982380e-01 2.7108510746705368e+00 1.2427703593577116e+01 0 0 0
2044 1 3.3222448854489317e-01 4.1506268692935686e+00 1.3879704730431559e+01 0 0 0
2046 1 3.0115684372119760e+00 1.2119759286399021e+00 1.4056786645994904e+01 0 0 0
2048 1 2.9070370731152066e+00 4.1101215085827416e+00 1.1158531099846471e+01 0 0 0
2051 1 4.1076316794386356e+00 2.6671165345223526e+00 1.2570696327889875e+01 0 0 0
2052 1 5.6585198337958706e+00 3.9103723322639761e+00 1.3891199459243202e+01 0 0 0
2056 1 8.4532743345019377e+00 3.9512129070040478e+00 1.1246260009363155e+01 0 0 0
2059 1 9.8159204822904051e+00 2.5521362957964380e+00 1.2481297906401405e+01 0 0 0
2060 1 1.1091975985852804e+01 3.8748680719789608e+00 1.4029628168788490e+01 0 0 0
2082 1 2.8971238303659530e-01 6.6914003805655238e+00 1.1211926134117888e+01 0 0 0
2085 1 1.6583667039856056e+00 5.5483130546013859e+00 1.2623908559539990e+01 0 0 0
2091 1 4.4169088270431747e+00 8.1382120908349940e+00 1.2533259475556212e+01 0 0 0
2086 1 3.0849267924035706e+00 6.9510550542676466e+00 1.3922107471800587e+01 0 0 0
2090 1 5.6182477163364082e+00 6.6791264189112702e+00 1.1185171091941017e+01 0 0 0
2093 1 7.0059384595211860e+00 5.2602810354181804e+00 1.2530842472234943e+01 0 0 0
2094 1 8.5394653546500994e+00 6.7284450056016345e+00 1.3882690211657946e+01 0 0 0
2098 1 1.1144535143061630e+01 6.6283822483130690e+00 1.1149013068477005e+01 0 0 0
2099 1 9.8430700838887528e+00 8.0654403381658213e+00 1.2518433027566489e+01 0 0 0
2125 1 1.6899709510652636e+00 1.0890399348792002e+01 1.2520406598043328e+01 0 0 0
2084 1 1.8173564003822038e-01 9.5390952268551548e+00 1.3961428215510439e+01 0 0 0
2088 1 3.0690129099741803e+00 9.4995697436158579e+00 1.1300096157230648e+01 0 0 0
2092 1 5.7322930955914586e+00 9.4943199144392132e+00 1.3963133881823206e+01 0 0 0
2096 1 8.4232741144937933e+00 9.3387214773751346e+00 1.1135381076751706e+01 0 0 0
2133 1 7.1049781850620999e+00 1.0725161801463742e+01 1.2579836519747863e+01 0 0 0
2100 1 1.1209327448957923e+01 9.4488386417631478e+00 1.3930224887282375e+01 0 0 0
3007 1 1.6285792583972123e+00 -2.7209116215847429e+00 1.5257820973574031e+01 0 0 0
3002 1 1.1599197981432322e-01 -4.1263806092112274e+00 1.6620303768050512e+01 0 0 0
3101 1 1.2392630170059823e+01 5.3060069847138100e+00 1.8041172040198148e+01 0 0 0
3010 1 5.5870814055214648e+00 -4.0290733134317360e+00 1.6495521508722973e+01 0 0 0
3015 1 7.1439094940601287e+00 -2.7742635602275536e+00 1.5117162532131845e+01 0 0 0
3017 1 9.7701535648145406e+00 -5.4944769566414511e+00 1.5279227430639160e+01 0 0 0
4091 1 4.3541437430258076e+00 8.0622637747863681e+00 2.3372706722935394e+01 0 0 0
3018 1 1.1126690900956016e+01 -4.1043231627595596e+00 1.6563010033969668e+01 0 0 0
3041 1 -1.0766724207441525e+00 -9.5808286920643096e-02 1.5180145589499327e+01 0 0 0
3049 1 4.4156586913697247e+00 -7.4812441010169539e-02 1.5294249834457416e+01 0 0 0
3008 1 3.0172591709228711e+00 -1.4027799831186922e+00 1.6652874068252963e+01 0 0 0
3016 1 8.3833133224423744e+00 -1.4142042776991406e+00 1.6630650397281961e+01 0 0 0
3057 1 9.8224057813634698e+00 -6.4112783652766264e-02 1.5291887266620794e+01 0 0 0
3058 1 1.1143854867993603e+01 1.3098666432672104e+00 1.6835898054124421e+01 0 0 0
3042 1 3.0654241850005581e-01 1.2041913297539155e+00 1.6581118164698381e+01 0 0 0
3047 1 1.6546332477057291e+00 2.7025990495803391e+00 1.5307814887873779e+01 0 0 0
3050 1 5.6506705822262244e+00 1.4267900185776361e+00 1.6627460593895712e+01 0 0 0
3048 1 3.0750817674639874e+00 4.0612082234719331e+00 1.6566701928262830e+01 0 0 0
3055 1 7.1018418705934252e+00 2.7161226991067440e+00 1.5310062206499071e+01 0 0 0
3056 1 8.4167848483335899e+00 4.0705605634915587e+00 1.6667489379987604e+01 0 0 0
4086 1 2.9066280438478804e+00 6.8368959606662054e+00 2.4787570263805307e+01 0 0 0
3082 1 2.4304436343137659e-01 6.6358206292242192e+00 1.6523336514741633e+01 0 0 0
3089 1 4.3998650575988396e+00 5.3541090628747128e+00 1.5083827372936453e+01 0 0 0
3090 1 5.7978541196985987e+00 6.7000413963490502e+00 1.6580470112324122e+01 0 0 0
3095 1 7.2354182416035746e+00 8.1316755493150108e+00 1.5259803136141509e+01 0 0 0
3097 1 9.7703997798528324e+00 5.4132862503774621e+00 1.5254531697328416e+01 0 0 0
4085 1 1.5107725176721387e+00 5.3333966056453468e+00 2.3491146955862881e+01 0 0 0
3098 1 1.1304384991963323e+01 6.7937286625148952e+00 1.6526005800717755e+01 0 0 0
3087 1 1.5932814134822293e+00 8.1518243393211609e+00 1.5255460871661617e+01 0 0 0
3129 1 4.2315124520714358e+00 1.0803271197125508e+01 1.5242234097121605e+01 0 0 0
3088 1 2.8644172310786731e+00 9.5285717113263431e+00 1.6558819589232357e+01 0 0 0
3096 1 8.5894153065256358e+00 9.5784432932227155e+00 1.6659203186342253e+01 0 0 0
3137 1 9.9529568840155793e+00 1.0863003343010543e+01 1.5224852609423788e+01 0 0 0
3121 1 -1.1028419758923711e+00 1.0776453398300504e+01 1.5367382345745519e+01 0 0 0
3011 1 4.3584767966529290e+00 -2.7919595365150904e+00 1.8081196035885885e+01 0 0 0
3006 1 2.8376158905732729e+00 -4.1932606659504295e+00 1.9317981709716285e+01 0 0 0
3013 1 7.0333745930304969e+00 -5.4064952449930086e+00 1.7925627332424035e+01 0 0 0
3014 1 8.4048518021674088e+00 -4.1796409509766663e+00 1.9239861281394159e+01 0 0 0
3019 1 9.7924069705814833e+00 -2.7163794586034187e+00 1.8003722316806822e+01 0 0 0
3045 1 1.5529060817832132e+00 -1.4577357016119399e-01 1.7879131570915668e+01 0 0 0
3004 1 2.8671067313535648e-01 -1.3563092839753277e+00 1.9427222046919866e+01 0 0 0
3012 1 5.7647663242820215e+00 -1.5046523588666774e+00 1.9290711355223578e+01 0 0 0
3053 1 6.9481802104882506e+00 -1.2289506871557977e-02 1.7911907423059798e+01 0 0 0
3061 1 1.2479291370843532e+01 -2.5275594165027748e-01 1.8074551374601175e+01 0 0 0
3020 1 1.1006264524497803e+01 -1.5104804372829421e+00 1.9467025526058798e+01 0 0 0
3043 1 -1.0282957498518972e+00 2.5035578665629039e+00 1.7758244288755918e+01 0 0 0
3044 1 3.3087877550497508e-01 3.9135784625996055e+00 1.9230355138104816e+01 0 0 0
3046 1 2.8408886945631315e+00 1.1299220925763322e+00 1.9355310857281076e+01 0 0 0
3051 1 4.2704423041538790e+00 2.6295682047150790e+00 1.8083098952555442e+01 0 0 0
3052 1 5.5481476102716920e+00 3.9873542435793925e+00 1.9463257256708925e+01 0 0 0
3054 1 8.4072076985451556e+00 1.1725391567348578e+00 1.9226355172563444e+01 0 0 0
3059 1 9.7261260223117567e+00 2.7145905458313799e+00 1.8112220447274801e+01 0 0 0
3060 1 1.1233023106599937e+01 3.9793021649831304e+00 1.9561230296622156e+01 0 0 0
3085 1 1.7161857656739981e+00 5.3156962712914604e+00 1.7890600925590931e+01 0 0 0
3086 1 3.0179927113890628e+00 6.6611316612563209e+00 1.9250187733803294e+01 0 0 0
3093 1 6.9623551441996385e+00 5.3754441427253026e+00 1.8024432916195654e+01 0 0 0
3094 1 8.5686675862002506e+00 6.6826477040272909e+00 1.9224464445693268e+01 0 0 0
3099 1 9.9651558103091613e+00 8.1381083175557549e+00 1.8033478223580921e+01 0 0 0
3125 1 1.5432493790201907e+00 1.0812114157306643e+01 1.8054674623236377e+01 0 0 0
3084 1 2.8247629035528626e-01 9.3846461922206874e+00 1.9326778079711744e+01 0 0 0
3091 1 4.2711968960906521e+00 8.1254815311022046e+00 1.7852640432319941e+01 0 0 0
3092 1 5.7033835062473717e+00 9.3950947770604429e+00 1.9298226295433537e+01 0 0 0
3133 1 7.1218894025164587e+00 1.0895319326500191e+01 1.7933675876971360e+01 0 0 0
4060 1 1.1038391356120565e+01 3.9324595088270566e+00 2.4821507597725020e+01 0 0 0
3100 1 1.1249769686905937e+01 9.6165287515974942e+00 1.9371352874996411e+01 0 0 0
4002 1 1.7463654657960531e-01 -4.1328035776519929e+00 2.2001452360555021e+01 0 0 0
4007 1 1.5433044371584739e+00 -2.6995787865958043e+00 2.0781386264462387e+01 0 0 0
4009 1 4.3133787607173311e+00 -5.4266913871120765e+00 2.0693005361088655e+01 0 0 0
4010 1 5.7280591873533853e+00 -4.0765735699456647e+00 2.1980636686232373e+01 0 0 0
4015 1 7.1743111459062128e+00 -2.8350713175189481e+00 2.0624376792842700e+01 0 0 0
4017 1 9.7927944871810375e+00 -5.4522676126423928e+00 2.0617268894485733e+01 0 0 0
4018 1 1.1076616758758158e+01 -4.1449309109401780e+00 2.2048088919240403e+01 0 0 0
4059 1 9.8240780328644295e+00 2.7097167381127507e+00 2.3344195490138407e+01 0 0 0
4051 1 4.1942878705351445e+00 2.5733414910535171e+00 2.3299035004142421e+01 0 0 0
4049 1 4.2985997345522984e+00 -1.6505869099234527e-01 2.0669326329780851e+01 0 0 0
4008 1 2.9241724876477826e+00 -1.4323163739448379e+00 2.2227218913950374e+01 0 0 0
4016 1 8.4538161589750676e+00 -1.5180445221844270e+00 2.2138420774025363e+01 0 0 0
4057 1 9.7188069576142428e+00 -1.4453483566813558e-01 2.0762128478764780e+01 0 0 0
4042 1 1.8744059758038106e-01 1.3689185283508816e+00 2.2094301167474256e+01 0 0 0
4047 1 1.5558022934872386e+00 2.6741351447430750e+00 2.0730330182095223e+01 0 0 0
4050 1 5.7512138366472030e+00 1.2327861915832095e+00 2.2056411093793457e+01 0 0 0
4048 1 2.7892628140000082e+00 3.9982252255080040e+00 2.2110720980747857e+01 0 0 0
4055 1 7.1501808157188691e+00 2.5882001238797208e+00 2.0631579188908319e+01 0 0 0
4056 1 8.3290060095102536e+00 3.8896479447068102e+00 2.2023264015357867e+01 0 0 0
4058 1 1.1061352039007328e+01 1.1087147267601190e+00 2.2102690524246128e+01 0 0 0
4052 1 5.5206400080676623e+00 4.0180142003144885e+00 2.4742338587163253e+01 0 0 0
4081 1 -9.2232618856383253e-01 5.3951126804326890e+00 2.0731484871922042e+01 0 0 0
4082 1 3.1586730328197826e-01 6.9689826256361496e+00 2.2072476802109428e+01 0 0 0
4089 1 4.3004251382159051e+00 5.3432393647779088e+00 2.0852958943441767e+01 0 0 0
4090 1 5.7972044757954304e+00 6.7660134952870568e+00 2.2090506792687815e+01 0 0 0
4097 1 9.8061083902942556e+00 5.3420788242505228e+00 2.0829743460287606e+01 0 0 0
4098 1 1.1124332788994883e+01 6.8037149580457745e+00 2.2037702582066895e+01 0 0 0
4044 1 1.6023674199043222e-01 4.0341610641869501e+00 2.4661456797052026e+01 0 0 0
4087 1 1.7885095485467486e+00 8.0829759196298543e+00 2.0587321864509075e+01 0 0 0
4121 1 -1.0604536378346723e+00 1.0710770076818378e+01 2.0728925776180429e+01 0 0 0
4088 1 3.0366617433558707e+00 9.5008689056629052e+00 2.2009401714405577e+01 0 0 0
4129 1 4.5720482421875586e+00 1.0825515112803641e+01 2.0774887481736847e+01 0 0 0
4096 1 8.4987889544645974e+00 9.4757406110822071e+00 2.2027976506964613e+01 0 0 0
4095 1 7.1837050839620096e+00 8.0458944967436583e+00 2.0660472454487845e+01 0 0 0
4137 1 9.9329983108561937e+00 1.0833655670003797e+01 2.0716306753659250e+01 0 0 0
7 1 1.7376900783723457e+00 -2.7069007821880264e+00 -1.0514649989618157e+00 0 0 0
4005 1 1.5757287949113126e+00 -5.3838562684751228e+00 2.3352684516863512e+01 0 0 0
4003 1 -1.0255588456056168e+00 -2.8290351070350570e+00 2.3518707419584906e+01 0 0 0
4006 1 2.9644847672037660e+00 -4.0896503668871418e+00 2.4724577161597615e+01 0 0 0
3063 1 1.2462924363495219e+01 2.6286740701631404e+00 1.5539471263650702e+01 0 0 0
4011 1 4.4014613627005472e+00 -2.8219369415380648e+00 2.3324681513381428e+01 0 0 0
15 1 7.0133584408642005e+00 -2.8465387895871781e+00 -9.7226536622893889e-01 0 0 0
4014 1 8.4201822550149856e+00 -4.0957951521381393e+00 2.4711205039134221e+01 0 0 0
17 1 9.7093921358446078e+00 -5.4259332895112893e+00 -1.0372564717106592e+00 0 0 0
23 1 1.2367014553826312e+01 -2.9299385081124369e+00 -8.6695968036999815e-01 0 0 0
4019 1 9.8592825775531079e+00 -2.8581176846338630e+00 2.3402306619755251e+01 0 0 0
4045 1 1.4456644581469147e+00 -9.5609025845001472e-02 2.3576839319832608e+01 0 0 0
4004 1 3.6709781816628856e-01 -1.5464431248948720e+00 2.4899851423276612e+01 0 0 0
4046 1 2.9333737661186667e+00 1.1402608854072875e+00 2.4913567599323933e+01 0 0 0
4053 1 7.0369398584887142e+00 -1.4380740064521019e-01 2.3392198098216692e+01 0 0 0
4054 1 8.4360366234170296e+00 1.4020546275959314e+00 2.4759722500638514e+01 0 0 0
4012 1 5.6091331314903217e+00 -1.4700351595549410e+00 2.4837343573420629e+01 0 0 0
57 1 9.8620970176372058e+00 3.5935033980969124e-02 -1.0354969737741371e+00 0 0 0
4020 1 1.1202522879224498e+01 -1.4553322948730882e+00 2.4884944379660457e+01 0 0 0
3001 1 -9.8639771884707983e-01 -5.4945607946641104e+00 1.5154813639650031e+01 0 0 0
2101 1 1.2481305906543678e+01 5.2295995237952981e+00 1.2628931021398104e+01 0 0 0
1103 1 1.2480879133622675e+01 8.0749030099889705e+00 4.5282803923574422e+00 0 0 0
1101 1 1.2491949505258138e+01 5.4743972769613887e+00 7.2258505561450228e+00 0 0 0
2041 1 -9.9084755224057375e-01 -6.6115342662901580e-04 9.8258024308791736e+00 0 0 0
2081 1 -1.0104173426201868e+00 5.3914351255524728e+00 9.6741146487101304e+00 0 0 0
2003 1 -1.0527413798237468e+00 -2.6977304440661163e+00 1.2492555582403742e+01 0 0 0
1017 1 9.7077398902728120e+00 -5.5077686739157627e+00 4.4121750774823090e+00 0 0 0
4013 1 7.0987523088022488e+00 -5.5021354374294162e+00 2.3285077535421884e+01 0 0 0
4021 1 1.2488423642197596e+01 -5.5136543065902970e+00 2.3403094964165053e+01 0 0 0
122 1 2.6087101348334218e-01 1.2088505583417865e+01 4.3356015810708953e-01 0 0 0
131 1 4.3441465697034012e+00 1.3407162228255737e+01 1.6886877243780578e+00 0 0 0
130 1 5.7256774408030076e+00 1.2154670056828758e+01 3.5150925064084987e-01 0 0 0
135 1 7.1134171911639505e+00 1.3437941112617361e+01 -1.0473340984851092e+00 0 0 0
138 1 1.1325942135755948e+01 1.2261524219666125e+01 4.0603082876463581e-01 0 0 0
139 1 9.7571117886030958e+00 1.3427311050226360e+01 1.7778604332621446e+00 0 0 0
162 1 1.6381102061739583e-01 1.7422035821810226e+01 2.5145295137476398e-01 0 0 0
165 1 1.5827885987048040e+00 1.6155797993259640e+01 1.6076159857738845e+00 0 0 0
128 1 3.0152655570825480e+00 1.4738656434127648e+01 2.5590048004158095e-01 0 0 0
170 1 5.7710232595896809e+00 1.7514307833106880e+01 4.9380252456523566e-01 0 0 0
136 1 8.4707995049403948e+00 1.4867401886906670e+01 4.1270178511222427e-01 0 0 0
173 1 7.1203998845444092e+00 1.6189647671256729e+01 1.8150765761263155e+00 0 0 0
177 1 9.8798117642874566e+00 1.6257384228709093e+01 -8.9871549474815116e-01 0 0 0
178 1 1.1253823859744999e+01 1.7697367587775194e+01 4.7844322282089313e-01 0 0 0
181 1 1.2490584895163291e+01 1.6211490106795292e+01 1.7124651137772984e+00 0 0 0
4220 1 1.0987290780975055e+01 2.5806063931620251e+01 2.4948514567033456e+01 0 0 0
171 1 4.3626136657858465e+00 1.8881705377746371e+01 1.7129973265498486e+00 0 0 0
168 1 3.1964833734230265e+00 2.0297438468698740e+01 2.3196772027822279e-01 0 0 0
176 1 8.3857304827071726e+00 2.0307414422995592e+01 2.7505369661967144e-01 0 0 0
213 1 7.0681960981732459e+00 2.1684202894549387e+01 1.6871140791516446e+00 0 0 0
179 1 9.7893958221758552e+00 1.9078451465735100e+01 1.6190134452113891e+00 0 0 0
183 1 1.2442416510803683e+01 1.8953419772507040e+01 -1.0138606477933394e+00 0 0 0
205 1 1.7020603024118188e+00 2.1665077997125856e+01 1.5667332411394934e+00 0 0 0
202 1 3.1813372753223335e-01 2.3052788548666406e+01 7.6278675584604549e-02 0 0 0
211 1 4.4314495242642904e+00 2.4419568373511112e+01 1.6188403720357443e+00 0 0 0
210 1 5.8705314746059560e+00 2.3025021973176411e+01 2.9923744517413492e-01 0 0 0
215 1 7.1467655954309803e+00 2.4405490311121266e+01 2.6088506687286849e+01 0 0 -1
218 1 1.1109898337011758e+01 2.3009982408492895e+01 2.9611492084397451e-01 0 0 0
219 1 9.9406977514732606e+00 2.4535917618326373e+01 1.5813397403063645e+00 0 0 0
4212 1 5.8306817416400163e+00 2.5739141892113317e+01 2.4666348668909716e+01 0 0 0
245 1 1.6850770804405459e+00 2.7240266583636441e+01 1.5957406806229038e+00 0 0 0
4123 1 -9.7261405366776899e-01 1.3480330470176805e+01 2.3322795018194405e+01 0 0 0
249 1 4.3330371047668788e+00 2.7232796433703562e+01 2.6083562106659883e+01 0 0 -1
208 1 2.9450859333781567e+00 2.5811414223746798e+01 2.8605346203074078e-01 0 0 0
253 1 7.0925626727876860e+00 2.7197375911881910e+01 1.7323373818389363e+00 0 0 0
216 1 8.4389004394335920e+00 2.5858657359439622e+01 3.2636829060395095e-01 0 0 0
257 1 9.6910289414371835e+00 2.7288767899573969e+01 -1.1028672692060209e+00 0 0 0
1127 1 1.4498223501356213e+00 1.3522124185475571e+01 4.4886885153898328e+00 0 0 0
126 1 2.9231241085141915e+00 1.2135439601487517e+01 3.1337645332200257e+00 0 0 0
134 1 8.3692364411639151e+00 1.2141721450474089e+01 2.9682700683491006e+00 0 0 0
1135 1 7.1205991643708266e+00 1.3573344202802854e+01 4.4116380141914471e+00 0 0 0
1143 1 1.2490119209868471e+01 1.3453562727901604e+01 4.2771372613429959e+00 0 0 0
124 1 1.8752685395023413e-01 1.4986031156313073e+01 3.1560691352596479e+00 0 0 0
4253 1 7.0829767266354020e+00 2.7165867087410760e+01 2.3355204797983816e+01 0 0 0
132 1 5.6585252319808834e+00 1.4813675173730166e+01 3.0695969192523473e+00 0 0 0
1169 1 4.3807762176356855e+00 1.6206807331874046e+01 4.4230760775530680e+00 0 0 0
166 1 2.9064824607591171e+00 1.7579699974537100e+01 3.0035110407274366e+00 0 0 0
174 1 8.6296698294367999e+00 1.7621675525041063e+01 3.0721444641659192e+00 0 0 0
140 1 1.1027737869479083e+01 1.4904124932032047e+01 3.0257190193423491e+00 0 0 0
1177 1 9.7101692165492501e+00 1.6144534963709013e+01 4.4119318658769284e+00 0 0 0
164 1 2.3780288615512296e-01 2.0160842033634399e+01 2.8502273743037576e+00 0 0 0
1167 1 1.5259315667436084e+00 1.8965748930071406e+01 4.4362773602652954e+00 0 0 0
1209 1 4.3639697270625346e+00 2.1557223053490393e+01 4.3267644331388952e+00 0 0 0