LAMMPS data file via write_data, version 30 Jul 2016, timestep = 10000

20000 atoms
1 atom types

-1.1038129598819815e+00 2.6103812959881921e+01 xlo xhi
-2.2076259197639587e+01 5.2207625919763962e+02 ylo yhi
-1.1038129598819815e+00 2.6103812959881921e+01 zlo zhi

Masses

1 28.0855

Atoms # atomic

2 1 1.2558984553321373e-01 -2.0816150927991984e+01 -7.9946916903153795e-02 0 0 0
7 1 1.5840775833277143e+00 -1.9469654917826457e+01 2.5815815139846595e+01 0 0 -1
5 1 1.5426929414420667e+00 -2.2007463006008752e+01 1.4735213233219808e+00 0 0 0
11 1 4.3333971223338006e+00 -1.9528528585321435e+01 1.4179276538466141e+00 0 0 0
16277 1 2.3419488114459696e+01 1.0589995607474892e+01 2.3171046716594336e+01 0 0 0
10 1 5.7185638684036970e+00 -2.0952357087304140e+01 3.9022447358775629e-02 0 0 0
15 1 6.9981262253213492e+00 -1.9557472969404145e+01 2.5794029122303549e+01 0 0 -1
19 1 9.9827895293187172e+00 -1.9522273784360781e+01 1.4465010499628197e+00 0 0 0
16236 1 2.2090572246834597e+01 9.3211949392210869e+00 2.4581479021991889e+01 0 0 0
18 1 1.1347630244044423e+01 -2.0999594940333179e+01 1.2409662728276774e-01 0 0 0
23 1 1.2590723003804044e+01 -1.9547429196362117e+01 2.5999840823432130e+01 0 0 -1
16269 1 1.7962908918567919e+01 1.0691622065270229e+01 2.3228457718490343e+01 0 0 0
27 1 1.5271034516314263e+01 -1.9669414970241188e+01 1.3679531890193455e+00 0 0 0
26 1 1.6532526354900895e+01 -2.1062406092167461e+01 5.0684791706155662e-02 0 0 0
16228 1 1.6637023263729876e+01 9.2948561240606793e+00 2.4623845947695095e+01 0 0 0
31 1 1.7829654578122344e+01 -1.9629447421348818e+01 2.5996943497382333e+01 0 0 -1
34 1 2.1900152502697885e+01 -2.0830740946973130e+01 -4.5354580240629085e-02 0 0 0
35 1 2.0569850104865733e+01 -1.9555981741918206e+01 1.3732703122420677e+00 0 0 0
3 1 -1.0681761850338063e+00 -1.9581946152794167e+01 1.4578255466227905e+00 0 0 0
39 1 2.3426880141534362e+01 -1.9502025139896901e+01 2.5866474251642305e+01 0 0 -1
45 1 1.6400654145974130e+00 -1.6721058155803988e+01 1.4390365229108228e+00 0 0 0
8 1 2.9271057566858376e+00 -1.8195513690254053e+01 6.7060056352169856e-02 0 0 0
49 1 4.3113746987887698e+00 -1.6770275800616002e+01 2.5893753014477483e+01 0 0 -1
53 1 7.1530282269906529e+00 -1.6890638483341771e+01 1.4881491478664928e+00 0 0 0
16 1 8.4353005747999976e+00 -1.8343270092027609e+01 7.8719875546961193e-02 0 0 0
57 1 9.7931470820481561e+00 -1.6784486855992931e+01 2.5951132318342452e+01 0 0 -1
61 1 1.2571158682621318e+01 -1.6725127067380878e+01 1.4676218643841805e+00 0 0 0
24 1 1.3932351089266264e+01 -1.8136161211414109e+01 1.3330829412432710e-01 0 0 0
65 1 1.5224242013541636e+01 -1.6741429502966618e+01 2.5999789257603634e+01 0 0 -1
69 1 1.7870842023431148e+01 -1.6800448725372426e+01 1.5249438958585366e+00 0 0 0
32 1 1.9179235183063547e+01 -1.8194045112539982e+01 4.6262447491124105e-02 0 0 0
73 1 2.0589775470690139e+01 -1.6677280414613392e+01 2.6045774679786920e+01 0 0 -1
77 1 2.3330150328373801e+01 -1.6894185871278388e+01 1.5349190734520812e+00 0 0 0
40 1 2.4720993221908294e+01 -1.8168750948047624e+01 -1.2848399829624359e-02 0 0 0
42 1 1.9130725668994111e-01 -1.5395431396268664e+01 1.8276848918564514e-01 0 0 0
43 1 -1.0741231151758552e+00 -1.3931885229729474e+01 1.5583753043792352e+00 0 0 0
47 1 1.5850809414421234e+00 -1.4033284066855458e+01 2.6083605406216634e+01 0 0 -1
51 1 4.4363070457394747e+00 -1.4133888075190308e+01 1.4713729629291106e+00 0 0 0
50 1 5.8465740178943895e+00 -1.5527378421186443e+01 1.5187124759401299e-02 0 0 0
55 1 7.0942631403096659e+00 -1.3933796879016942e+01 2.5945423890403728e+01 0 0 -1
59 1 9.8158108804833883e+00 -1.3947519977143980e+01 1.6197377241796906e+00 0 0 0
58 1 1.1117630174968417e+01 -1.5407243140380640e+01 1.9614250359407084e-01 0 0 0
63 1 1.2454825450490738e+01 -1.4140936361889620e+01 2.6015073116893074e+01 0 0 -1
67 1 1.5070961875643164e+01 -1.4068439027616035e+01 1.4863385860285034e+00 0 0 0
66 1 1.6488330719399002e+01 -1.5367657401793959e+01 2.1527721865818983e-01 0 0 0
71 1 1.7676538836253329e+01 -1.4122686807664449e+01 2.5895318519309733e+01 0 0 -1
74 1 2.2127903450929455e+01 -1.5420965239282710e+01 1.1455104656662035e-01 0 0 0
75 1 2.0636627716939127e+01 -1.4190094190053435e+01 1.4428985513010906e+00 0 0 0
79 1 2.3336622658479548e+01 -1.3982172934797974e+01 2.5994337476061506e+01 0 0 -1
85 1 1.7300475202920824e+00 -1.1351229590702275e+01 1.3804048375204805e+00 0 0 0
82 1 2.4490000452689512e-01 -1.0060098027919762e+01 5.7094089491865452e-02 0 0 0
81 1 2.6010519209689310e+01 -1.1308101205375966e+01 2.5937567000489235e+01 -1 0 -1
48 1 3.2049430051281820e+00 -1.2711884681582667e+01 9.2455031286611061e-02 0 0 0
89 1 4.4529633889253120e+00 -1.1272018827140483e+01 2.5870419574912461e+01 0 0 -1
90 1 5.7057872140690051e+00 -1.0033035886498377e+01 1.6872155839346886e-01 0 0 0
56 1 8.4749021006243943e+00 -1.2645770430015999e+01 1.2304667459365597e-01 0 0 0
97 1 9.7866966052817723e+00 -1.1325743700756391e+01 2.5883495843233682e+01 0 0 -1
64 1 1.3816137323008105e+01 -1.2740437189267867e+01 1.0478903247051581e-01 0 0 0
101 1 1.2571919636717912e+01 -1.1388078060057522e+01 1.4631564424926982e+00 0 0 0
98 1 1.1164177372793260e+01 -1.0099848527870652e+01 8.7365631141606198e-02 0 0 0
106 1 1.6569287062084094e+01 -9.9582967960224202e+00 -5.2083897376408499e-02 0 0 0
105 1 1.5151221307141045e+01 -1.1236229296816026e+01 2.5852088836050374e+01 0 0 -1
72 1 1.9195954517971334e+01 -1.2792509050663432e+01 4.3597825127383028e-02 0 0 0
109 1 1.7908812385761575e+01 -1.1396605674412987e+01 1.4017620151509707e+00 0 0 0
114 1 2.1921046240568398e+01 -9.9216618006945581e+00 2.4128470605470041e-03 0 0 0
113 1 2.0530870731786798e+01 -1.1397926787169023e+01 2.5845666839597992e+01 0 0 -1
80 1 2.4660148928273063e+01 -1.2585155282380693e+01 2.6896614850610118e-01 0 0 0
117 1 2.3273044907553881e+01 -1.1281819598885088e+01 1.4925054832315254e+00 0 0 0
83 1 2.6038776356957122e+01 -8.6942268271633640e+00 1.5279071656843626e+00 -1 0 0
87 1 1.5845680903795163e+00 -8.5972726043765633e+00 2.6033077199131771e+01 0 0 -1
88 1 3.0050744793562756e+00 -7.1697889181507808e+00 4.8815383298989622e-02 0 0 0
91 1 4.4002374443806840e+00 -8.5369405806905796e+00 1.4578170230989567e+00 0 0 0
95 1 7.0887190922236067e+00 -8.5615865113848706e+00 2.6080516056724772e+01 0 0 -1
96 1 8.4055239469422620e+00 -7.1220518792306891e+00 6.0433156169955968e-02 0 0 0
99 1 9.7587910839900598e+00 -8.4880599262404530e+00 1.4093623495028504e+00 0 0 0
104 1 1.3870892221310408e+01 -7.0590005543329255e+00 4.3235305628795892e-02 0 0 0
103 1 1.2511801616920931e+01 -8.5493972732715147e+00 2.5938312420844312e+01 0 0 -1
112 1 1.9255338275657163e+01 -7.2629197514145423e+00 6.2690646073872203e-02 0 0 0
111 1 1.7827475748571931e+01 -8.5191917921641398e+00 2.5931476971947419e+01 0 0 -1
115 1 2.0609131802799698e+01 -8.6271829563842761e+00 1.4463160698541146e+00 0 0 0
120 1 2.4856099207548141e+01 -7.2478695383444842e+00 1.9719548372427503e-01 0 0 0
119 1 2.3427083075397345e+01 -8.4171936507702352e+00 2.6084106120387133e+01 0 0 -1
122 1 3.3616922995266763e-01 -4.4292268627994327e+00 2.3208320069683724e-01 0 0 0
121 1 -9.8649795791859340e-01 -5.9203299175848354e+00 2.6055885084683553e+01 0 0 -1
129 1 4.3883294123339871e+00 -6.0030319237977832e+00 2.5908670195183880e+01 0 0 -1
133 1 7.1759107460373972e+00 -5.7720426417701987e+00 1.5469986983271353e+00 0 0 0
130 1 5.7302335402896212e+00 -4.4968642600383166e+00 9.7346152003870701e-02 0 0 0
137 1 9.8872195645546217e+00 -5.7879454426155581e+00 2.6031667597295684e+01 0 0 -1
138 1 1.1168118213734711e+01 -4.2679417286179513e+00 2.1299482879177163e-02 0 0 0
141 1 1.2502883808375863e+01 -5.6379080669552302e+00 1.5316791132243852e+00 0 0 0
146 1 1.6604575337150184e+01 -4.4249148289514428e+00 -8.0839485595951749e-02 0 0 0
145 1 1.5213800760126796e+01 -5.7495059488193476e+00 2.5797596240977967e+01 0 0 -1
149 1 1.7978424530236460e+01 -5.8895182967902420e+00 1.3049820009233499e+00 0 0 0
154 1 2.1912096967814900e+01 -4.5909820569350277e+00 8.8089862964206622e-02 0 0 0
153 1 2.0492282040379916e+01 -5.8389899418141686e+00 2.6017486143967506e+01 0 0 -1
127 1 1.6114378570717649e+00 -3.1954067697094297e+00 2.5917028699844309e+01 0 0 -1
131 1 4.3406566080909235e+00 -3.0615172264906585e+00 1.5522531772086874e+00 0 0 0
128 1 2.9584228226540099e+00 -1.7753620129929333e+00 6.4579232287525226e-02 0 0 0
135 1 6.9983001335084980e+00 -3.0698436829569200e+00 2.5969986911015418e+01 0 0 -1
139 1 9.7854765868891675e+00 -3.0423135774446624e+00 1.5743739552636227e+00 0 0 0
136 1 8.4791629204868482e+00 -1.7249738490177107e+00 4.4501666942841932e-02 0 0 0
144 1 1.3985194838341666e+01 -1.7395229166463433e+00 -1.0235493032408283e-02 0 0 0
143 1 1.2598474164696841e+01 -3.0913627868582880e+00 2.5805332661062128e+01 0 0 -1
147 1 1.5288604672916046e+01 -3.1412889243186415e+00 1.4235860499357955e+00 0 0 0
152 1 1.9278733506028164e+01 -1.6804652035017205e+00 -1.4550836643808669e-02 0 0 0
151 1 1.7968954668037995e+01 -3.0798351626831306e+00 2.5760193030308582e+01 0 0 -1
123 1 -1.0840445496347932e+00 -3.0911100649926850e+00 1.5563528881403614e+00 0 0 0
160 1 2.4897281605690999e+01 -1.6031583320614506e+00 1.9932859394804636e-01 0 0 0
159 1 2.3443050066044190e+01 -3.1401338377483916e+00 -1.1019637767504340e+00 0 0 0
165 1 1.6221899257745220e+00 -3.5694649341223417e-01 1.4537188480915939e+00 0 0 0
162 1 1.5512001984984422e-01 9.0717842594241682e-01 2.4882622186877219e-02 0 0 0
161 1 -1.0836402340593958e+00 -3.3577638620567518e-01 2.5749897598302059e+01 0 0 -1
167 1 1.6415037791802822e+00 2.3663834497847169e+00 2.5974720285043492e+01 0 0 -1
171 1 4.2356934208513977e+00 2.3037875977225579e+00 1.4325657291400746e+00 0 0 0
169 1 4.2156194949586716e+00 -2.8297320172928214e-01 2.5840895024655303e+01 0 0 -1
170 1 5.5602855707582002e+00 9.7738053057369256e-01 1.2090917650084541e-01 0 0 0
175 1 7.0752143106312904e+00 2.2286416440246573e+00 2.6099344169395561e+01 0 0 -1
179 1 9.8275632124452095e+00 2.2429084443534322e+00 1.3737446884839695e+00 0 0 0
177 1 9.7691956004542124e+00 -5.1151085729101053e-01 2.5725076224463457e+01 0 0 -1
181 1 1.2520293930644987e+01 -4.4696951480912500e-01 1.3388444462808402e+00 0 0 0
178 1 1.1206728892135777e+01 1.0292989593788691e+00 -1.1117982683550381e-01 0 0 0
183 1 1.2551540859165723e+01 2.3568090594531603e+00 2.5878818549463720e+01 0 0 -1
186 1 1.6560595362880147e+01 1.0373680116594934e+00 -5.1619431203469776e-02 0 0 0
187 1 1.5234382291135070e+01 2.3653093044948195e+00 1.3587160931459876e+00 0 0 0
185 1 1.5222511084538228e+01 -4.1085103204074214e-01 2.5819972999827701e+01 0 0 -1
189 1 1.7953853111842495e+01 -2.1248459708870515e-01 1.4006948695169190e+00 0 0 0
191 1 1.8100581542421928e+01 2.5062645785260447e+00 2.5932186004233067e+01 0 0 -1
194 1 2.2046913039581234e+01 9.3294074803689653e-01 -8.8895549834095061e-02 0 0 0
195 1 2.0835349623434787e+01 2.3158156162676531e+00 1.4423427229742565e+00 0 0 0
193 1 2.0678275514210558e+01 -3.9774837660783541e-01 2.5751278181864059e+01 0 0 -1
163 1 2.5999733875785140e+01 2.2155081591749863e+00 1.5503881075320478e+00 -1 0 0
197 1 2.3313380090333872e+01 -3.9824906452335501e-01 1.4347867828893297e+00 0 0 0
199 1 2.3391948874377661e+01 2.2565114481708242e+00 2.6021368546545606e+01 0 0 -1
201 1 -1.0691610784125019e+00 5.1468184819279168e+00 2.5923290241166857e+01 0 0 -1
168 1 2.8929256308029996e+00 3.7240567330008107e+00 7.2929823190104853e-02 0 0 0
209 1 4.2962219317258912e+00 5.0217484238618173e+00 2.5855108017842454e+01 0 0 -1
213 1 6.9746114776473469e+00 5.0484259226610035e+00 1.4845633982287327e+00 0 0 0
176 1 8.4155590399843767e+00 3.6102987582879744e+00 1.4490271280866140e-01 0 0 0
217 1 9.6387918011468052e+00 5.0873339723477198e+00 2.5877051032162317e+01 0 0 -1
184 1 1.3930308868227735e+01 3.6750988641697937e+00 -5.9235415590647281e-02 0 0 0
221 1 1.2737130223084106e+01 5.0580572776999357e+00 1.3652171152565831e+00 0 0 0
225 1 1.5250487392139073e+01 5.1583891543505915e+00 2.5939125832890753e+01 0 0 -1
192 1 1.9466665496853686e+01 3.8622877874795796e+00 1.2924332491225032e-01 0 0 0
229 1 1.8011594292478286e+01 5.2215069143842117e+00 1.3488591276199597e+00 0 0 0
233 1 2.0798395728468613e+01 5.1679319803110690e+00 2.5969896119054006e+01 0 0 -1
200 1 2.4876035655974679e+01 3.5925525995485361e+00 1.3511378940493227e-01 0 0 0
237 1 2.3599329608850041e+01 5.0095480370193055e+00 1.4143797957688697e+00 0 0 0
202 1 2.4887301909148143e-01 6.5226565040687152e+00 8.2139532861245951e-02 0 0 0
207 1 1.6187268376944468e+00 7.7608556507835553e+00 2.5835802739319124e+01 0 0 -1
211 1 4.2628793285684159e+00 7.8423172158496959e+00 1.3141778428192816e+00 0 0 0
210 1 5.6345125338354691e+00 6.3324420772196133e+00 1.0413558088469110e-01 0 0 0
215 1 6.8904313675080404e+00 7.7795633220793485e+00 2.5923975151126132e+01 0 0 -1
219 1 9.7759529444164297e+00 7.6826510233379528e+00 1.2541449799564972e+00 0 0 0
218 1 1.1187541201688461e+01 6.3521458387348959e+00 -3.7964794534822904e-02 0 0 0
223 1 1.2390092387737527e+01 7.7589636170609761e+00 2.5896086197745230e+01 0 0 -1
226 1 1.6539172711924017e+01 6.5475480654748797e+00 6.5355520001930081e-02 0 0 0
231 1 1.8051993039311380e+01 7.8487886518295635e+00 2.5969630500970915e+01 0 0 -1
234 1 2.2142416915307027e+01 6.4304518756183260e+00 1.6849319875692942e-01 0 0 0
235 1 2.0782419386559834e+01 7.7530821548123390e+00 1.3661477311733052e+00 0 0 0
203 1 2.6062844769582529e+01 7.8648297636667177e+00 1.5774634081038164e+00 -1 0 0
239 1 2.3395730208701536e+01 7.8485761165188652e+00 2.5882735588084646e+01 0 0 -1
245 1 1.5381821448078676e+00 1.0462770285457706e+01 1.5440962071674253e+00 0 0 0
208 1 2.9193768661244115e+00 9.2321263367164867e+00 -5.3962956145949016e-02 0 0 0
249 1 4.3122094136179046e+00 1.0703120214282864e+01 2.6018001651665312e+01 0 0 -1
253 1 6.9834593974841797e+00 1.0617066217998838e+01 1.4285254813207657e+00 0 0 0
16220 1 1.0965337112052742e+01 8.9790263854932792e+00 2.4335747690005917e+01 0 0 0
216 1 8.2603388921636469e+00 9.2200341609135901e+00 -1.0720199528212754e-03 0 0 0
257 1 9.7360788921206716e+00 1.0409362415579233e+01 2.5841727174496345e+01 0 0 -1
261 1 1.2424652559893318e+01 1.0430065903132100e+01 1.6402218655020440e+00 0 0 0
224 1 1.3722376135027689e+01 9.2719636392669820e+00 4.7502872175439637e-02 0 0 0
265 1 1.5193431817111204e+01 1.0601869610681463e+01 2.6041673069209367e+01 0 0 -1
269 1 1.7980567324407993e+01 1.0564326135517941e+01 1.4248909691692802e+00 0 0 0
232 1 1.9382255068988812e+01 9.1398498910569685e+00 1.1227612273493037e-01 0 0 0
273 1 2.0700322524838217e+01 1.0624103510679369e+01 2.5982953167239550e+01 0 0 -1
16261 1 1.2480246543108928e+01 1.0552034124100496e+01 2.3229241971478473e+01 0 0 0
277 1 2.3306561987188779e+01 1.0619695143918113e+01 1.5096874927794803e+00 0 0 0
240 1 2.4767864729165531e+01 9.2089339634633109e+00 8.5258670953563570e-02 0 0 0
241 1 2.6047218975723307e+01 1.0609900539843558e+01 2.6020535689127115e+01 -1 0 -1
4007 1 1.6709065992996279e+00 -1.9512969282905313e+01 4.2301469887838312e+00 0 0 0
6 1 3.1104726676971470e+00 -2.0920413908989016e+01 2.9359389299901317e+00 0 0 0
16212 1 5.5168996235529164e+00 9.2422780608364885e+00 2.4549067653951713e+01 0 0 0
4015 1 7.2182280893653479e+00 -1.9577515681481682e+01 4.2229874032327901e+00 0 0 0
14 1 8.6040940794918068e+00 -2.0845311359207898e+01 2.8881861941490024e+00 0 0 0
16253 1 7.0017561303152869e+00 1.0466424447206293e+01 2.3178998467756273e+01 0 0 0
4023 1 1.2657681643717076e+01 -1.9471233045850994e+01 4.2843051110179085e+00 0 0 0
22 1 1.3948802023428335e+01 -2.0986048083447145e+01 2.8938777503850543e+00 0 0 0
16245 1 1.6174146399186546e+00 1.0375599765958626e+01 2.3336199597629793e+01 0 0 0
4031 1 1.7848801097486653e+01 -1.9588198740237843e+01 4.2634234333927301e+00 0 0 0
30 1 1.9301579533649047e+01 -2.0865759683169710e+01 2.9740826629348613e+00 0 0 0
16204 1 1.8285054720220695e-01 9.1694012541203058e+00 2.4624278843679662e+01 0 0 0
16238 1 2.4760919343513017e+01 6.4706754081066657e+00 2.4563406489160545e+01 0 0 0
38 1 2.4722963422919403e+01 -2.0910823616801583e+01 2.8524508328204048e+00 0 0 0
4039 1 2.3293489408723715e+01 -1.9522228853953738e+01 4.1177973371341450e+00 0 0 0
4 1 4.4270199076550032e-01 -1.8136647238321363e+01 2.7918505583458457e+00 0 0 0
4049 1 4.4497559732694478e+00 -1.6806610399513140e+01 4.2012757930525799e+00 0 0 0
12 1 5.8433514310250292e+00 -1.8235615720268719e+01 2.8671144628197114e+00 0 0 0
4057 1 9.9448956859759843e+00 -1.6682397904932930e+01 4.1480094865690367e+00 0 0 0
20 1 1.1273070402652760e+01 -1.8113157686935519e+01 2.9104339145655151e+00 0 0 0
4065 1 1.5270163500848028e+01 -1.6767954898185504e+01 4.2697926437915434e+00 0 0 0
28 1 1.6516194138087325e+01 -1.8112823422017314e+01 2.7821634593950550e+00 0 0 0
4073 1 2.0491225744763202e+01 -1.6747712397072846e+01 4.3401901809507413e+00 0 0 0
36 1 2.1865242499656315e+01 -1.8147570767723220e+01 2.8556710670106469e+00 0 0 0
4041 1 -1.0876627287392679e+00 -1.6805978761955437e+01 4.2604039712948758e+00 0 0 0
4047 1 1.6269286881419998e+00 -1.4065699883368842e+01 4.0283128929336289e+00 0 0 0
46 1 3.0260337495195775e+00 -1.5469874070381271e+01 2.8956277513688655e+00 0 0 0
4055 1 7.0200046028651260e+00 -1.4051305777393466e+01 4.2617912625103092e+00 0 0 0
54 1 8.4339985324083564e+00 -1.5409919364878427e+01 2.8381512680425502e+00 0 0 0
4063 1 1.2483931703828056e+01 -1.4014619505360294e+01 4.2653778746723390e+00 0 0 0
62 1 1.3862402355394893e+01 -1.5375898029384086e+01 2.8674629096727511e+00 0 0 0
4071 1 1.7956059538124912e+01 -1.3965122329026874e+01 4.1745641942056233e+00 0 0 0
70 1 1.9257961703850746e+01 -1.5512132787065248e+01 2.9136192309192208e+00 0 0 0
78 1 2.4763018035922087e+01 -1.5445318893144291e+01 2.8564380738256410e+00 0 0 0
4079 1 2.3412504842840118e+01 -1.4059917270301622e+01 4.2254847212008686e+00 0 0 0
44 1 3.8480138390148078e-01 -1.2652759453190777e+01 2.7161218542829211e+00 0 0 0
4081 1 -1.0492875854584829e+00 -1.1449707430966800e+01 4.0862172488373920e+00 0 0 0
4089 1 4.4120184308869597e+00 -1.1278545458596737e+01 4.1498678075066744e+00 0 0 0
86 1 2.9752067003643403e+00 -9.9737770105078862e+00 2.7790629951690278e+00 0 0 0
93 1 7.1018358628013889e+00 -1.1334710513509261e+01 1.5752876571666916e+00 0 0 0
52 1 5.6537376930535412e+00 -1.2712694791499828e+01 2.7882620330408363e+00 0 0 0
4097 1 9.8278874298014465e+00 -1.1300005331856317e+01 4.1269509768503756e+00 0 0 0
60 1 1.1280767794412197e+01 -1.2618480750970702e+01 2.7990604083332138e+00 0 0 0
102 1 1.3952384259819969e+01 -9.8946484797897476e+00 2.7294275143489619e+00 0 0 0
68 1 1.6495178798150455e+01 -1.2661294258154362e+01 2.8037432588842899e+00 0 0 0
4105 1 1.5147994607046995e+01 -1.1378619682062029e+01 4.1952219034091103e+00 0 0 0
110 1 1.9438761597160475e+01 -1.0137309240093185e+01 2.8017905990753991e+00 0 0 0
76 1 2.1975205406881056e+01 -1.2751920881937293e+01 2.8037502430923258e+00 0 0 0
4113 1 2.0747794638113369e+01 -1.1413756612758343e+01 4.1621806458996886e+00 0 0 0
118 1 2.4696675569194202e+01 -1.0097925443999273e+01 2.7881541542056092e+00 0 0 0
84 1 2.1280830167309148e-01 -7.3260871977148847e+00 2.8460938832091545e+00 0 0 0
4087 1 1.6422624052488464e+00 -8.7777846747997401e+00 4.1649212163741280e+00 0 0 0
92 1 5.8286750233612707e+00 -7.1988837343763441e+00 2.8325275835834707e+00 0 0 0
4095 1 7.1239643572472620e+00 -8.5814342097108423e+00 4.1560404546104222e+00 0 0 0
94 1 8.5440001842229378e+00 -9.9244492160230209e+00 2.8410351027052432e+00 0 0 0
100 1 1.1260582291762256e+01 -7.1572143709230227e+00 2.8069247430408768e+00 0 0 0
4103 1 1.2682115055077963e+01 -8.7049411233453640e+00 4.2176968483846382e+00 0 0 0
107 1 1.5333730092609573e+01 -8.5673300514390860e+00 1.3185291741898286e+00 0 0 0
108 1 1.6648932736269021e+01 -7.1695229344187723e+00 2.6883755263533584e+00 0 0 0
4111 1 1.8017374507092608e+01 -8.5806940897962996e+00 4.0743837957694469e+00 0 0 0
116 1 2.2139317300225976e+01 -7.3627662370549896e+00 2.7109739971337885e+00 0 0 0
4119 1 2.3348965598247460e+01 -8.7822771654796803e+00 4.2275098571550851e+00 0 0 0
125 1 1.7228523517173799e+00 -5.8856915117157627e+00 1.5326368835874156e+00 0 0 0
4121 1 2.6052118783220497e+01 -5.8841388593956969e+00 4.1383660124354735e+00 -1 0 0
4129 1 4.3628035371797989e+00 -5.9698722043577748e+00 4.1876475132793010e+00 0 0 0
126 1 3.0169214171548022e+00 -4.4916057201427435e+00 2.9011421120226819e+00 0 0 0
4137 1 9.8148012811457619e+00 -5.8561208537602258e+00 4.2286951734558276e+00 0 0 0
134 1 8.5390342804710304e+00 -4.5163205672484432e+00 2.8352479411032681e+00 0 0 0
142 1 1.3926376132106087e+01 -4.4038302094219111e+00 2.8710361561187052e+00 0 0 0
4145 1 1.5394197238604765e+01 -5.7504380073596568e+00 4.0066936225575391e+00 0 0 0
150 1 1.9248003550824006e+01 -4.5585350350959377e+00 2.6627917990305838e+00 0 0 0
4153 1 2.0761920148589798e+01 -5.9800127628503441e+00 4.1129998710595919e+00 0 0 0
157 1 2.3466172171405290e+01 -5.8318797267800857e+00 1.4708940402846542e+00 0 0 0
158 1 2.4759543641056869e+01 -4.4939471545071683e+00 2.8787470129132897e+00 0 0 0
4127 1 1.5212583852315800e+00 -3.1800339807087101e+00 4.2598960215887960e+00 0 0 0
124 1 2.6301286446756467e-01 -1.6964949061962831e+00 2.8854503426337694e+00 0 0 0
4135 1 7.1994260691240228e+00 -3.0805669806556395e+00 4.1695190715629664e+00 0 0 0
132 1 5.7703531759475331e+00 -1.6180570285096787e+00 2.8301480671062285e+00 0 0 0
140 1 1.1250916086434481e+01 -1.7938446813206652e+00 2.7530541978384244e+00 0 0 0
4143 1 1.2564847648163530e+01 -3.2157870057240596e+00 4.1671598248246928e+00 0 0 0
148 1 1.6562181562915782e+01 -1.6721993615990622e+00 2.8757374112053311e+00 0 0 0
4151 1 1.7914108584417722e+01 -3.1827913135946990e+00 4.0914714504229694e+00 0 0 0
155 1 2.0635936661358105e+01 -3.0864365217673133e+00 1.3977819824492705e+00 0 0 0
156 1 2.1974368455629236e+01 -1.6854495658301947e+00 2.7179292169221392e+00 0 0 0
4159 1 2.3284437096680946e+01 -3.1236325691239801e+00 4.2050078318032087e+00 0 0 0
4167 1 1.4221821460302442e+00 2.3810306158958343e+00 4.2013841051340775e+00 0 0 0
4161 1 2.5943155887055724e+01 -4.4222474038371723e-01 4.1487574327182744e+00 -1 0 0
4169 1 4.2629260217203298e+00 -3.4411881774650221e-01 4.2645639917705092e+00 0 0 0
166 1 2.9277378986672193e+00 9.9055893046395549e-01 2.8827717773830761e+00 0 0 0
173 1 7.0235352840063410e+00 -3.6497187127654007e-01 1.3979088635473544e+00 0 0 0
4175 1 7.0148775274036019e+00 2.2481767538140289e+00 4.1169081862383914e+00 0 0 0
4177 1 9.6559503368783624e+00 -4.6878196676059664e-01 4.0421697263120091e+00 0 0 0
174 1 8.4363800652935961e+00 9.3461635422311695e-01 2.6576225755645204e+00 0 0 0
182 1 1.3832241285005166e+01 9.5933001811020535e-01 2.7454341294047815e+00 0 0 0
4183 1 1.2577800346408461e+01 2.3629429002606694e+00 4.0985539477587123e+00 0 0 0
4185 1 1.5248289565630111e+01 -1.6110475826529283e-01 4.3002813476463499e+00 0 0 0
190 1 1.9352470001284185e+01 1.0308697884967462e+00 2.8905399549256803e+00 0 0 0
4191 1 1.7819212386898663e+01 2.3997603994253103e+00 4.1260633378886311e+00 0 0 0
4193 1 2.0631320945716567e+01 -3.9647815690414945e-01 4.1191719093081760e+00 0 0 0
198 1 2.4618677541785772e+01 8.9253820595226585e-01 2.9152394680821510e+00 0 0 0
4199 1 2.3249710386085436e+01 2.3122061589590621e+00 4.3284726362512318e+00 0 0 0
205 1 1.5734278559512107e+00 5.1256319355030149e+00 1.4487348293941940e+00 0 0 0
164 1 1.1063063860437017e-01 3.7077101787923872e+00 2.7846763930793963e+00 0 0 0
4209 1 4.3021641278585996e+00 4.9982951220620357e+00 4.1543658244563124e+00 0 0 0
172 1 5.5880005252591278e+00 3.6121410392593494e+00 2.7731821169638788e+00 0 0 0
4217 1 9.9874653253179471e+00 4.9857347743633564e+00 4.0111768243303265e+00 0 0 0
180 1 1.1227187831296993e+01 3.7228538374916793e+00 2.7010810277447437e+00 0 0 0
188 1 1.6653344204772655e+01 3.6765944979172982e+00 2.6168007700228788e+00 0 0 0
4225 1 1.5365904316956774e+01 5.1527733508482765e+00 4.0497627926788660e+00 0 0 0
196 1 2.2062305375955425e+01 3.7126315310591576e+00 2.8456254626006485e+00 0 0 0
4233 1 2.0731639136053534e+01 5.0920225126658591e+00 4.1757706497658038e+00 0 0 0
4201 1 -1.0638239757326637e+00 5.1107879077728384e+00 4.2572924582754244e+00 0 0 0
4207 1 1.7896614002385356e+00 7.7399452772309250e+00 4.2260756568052429e+00 0 0 0
206 1 3.0045576653770643e+00 6.4326402944785155e+00 2.7332431667422421e+00 0 0 0
4215 1 7.0538833034249535e+00 7.7744391073810046e+00 4.0994778756619974e+00 0 0 0
214 1 8.5037090138514966e+00 6.3977307713229097e+00 2.7217744941450248e+00 0 0 0
4223 1 1.2438083838179230e+01 7.8113046194785856e+00 4.1086123191261077e+00 0 0 0
222 1 1.3942372131886346e+01 6.5879097539433991e+00 2.7269408705057314e+00 0 0 0
227 1 1.5245728859692889e+01 7.9381403703277424e+00 1.3949229009032191e+00 0 0 0
4231 1 1.8024555956471268e+01 7.9426825786189772e+00 4.0680063965484079e+00 0 0 0
230 1 1.9342020734468402e+01 6.5047758038634642e+00 2.7934738348686192e+00 0 0 0
238 1 2.4764087961824998e+01 6.4272268273268729e+00 2.8609397942883241e+00 0 0 0
4239 1 2.3369773353387714e+01 7.8546193421524064e+00 4.1906009862585769e+00 0 0 0
204 1 2.8442781794617589e-01 9.1657401561971952e+00 3.0297669239031344e+00 0 0 0
4249 1 4.4403464718795984e+00 1.0408704273962886e+01 4.2239475185372513e+00 0 0 0
212 1 5.7261999870768561e+00 9.1337416621594087e+00 2.7818375954740615e+00 0 0 0
4257 1 9.8821372106916368e+00 1.0434939761914425e+01 4.1261073853511672e+00 0 0 0
254 1 8.5256069683416538e+00 1.1857788693468786e+01 2.7901265457951290e+00 0 0 0
220 1 1.1051964940539046e+01 9.0595374247872034e+00 2.9063922383196861e+00 0 0 0
4265 1 1.5387999067525085e+01 1.0512948610785164e+01 4.2682713763889923e+00 0 0 0
228 1 1.6576728478825661e+01 9.2421416762933220e+00 2.7414611134000988e+00 0 0 0
16203 1 -1.0603813554340427e+00 7.7854803023669721e+00 2.3220426014446677e+01 0 0 0
4273 1 2.0653108205504303e+01 1.0717090450838619e+01 4.2414251583659777e+00 0 0 0
236 1 2.1957104760222293e+01 9.1843601670829944e+00 2.8205093993967698e+00 0 0 0
4241 1 -1.0709345984659322e+00 1.0560403858837686e+01 4.2568599363505086e+00 0 0 0
4002 1 1.0981187823725540e-01 -2.0819965844415886e+01 5.5665076970156511e+00 0 0 0
16235 1 2.0769971046259979e+01 7.9611994480270356e+00 2.3188647272420816e+01 0 0 0
4011 1 4.3743364656083150e+00 -1.9458150874103978e+01 6.9544332681240322e+00 0 0 0
4010 1 5.7154780568606789e+00 -2.0831581648823622e+01 5.7158639540435034e+00 0 0 0
16230 1 1.9477943101633223e+01 6.5101182670615190e+00 2.4614278417146853e+01 0 0 0
4019 1 9.8185213923693926e+00 -1.9425257220208593e+01 6.9869298024800344e+00 0 0 0
4018 1 1.1149806108117005e+01 -2.0861314928265585e+01 5.7202712169713488e+00 0 0 0
16227 1 1.5338207073790487e+01 7.7910485751354646e+00 2.3172554988265741e+01 0 0 0
4027 1 1.5358689165380815e+01 -1.9496068674729852e+01 6.9168517036206136e+00 0 0 0
4026 1 1.6611518882951135e+01 -2.1002794653714083e+01 5.6637046229091546e+00 0 0 0
16222 1 1.3981035053276099e+01 6.5985485161481527e+00 2.4520999247373712e+01 0 0 0
4034 1 2.1906197025656542e+01 -2.0798280248629883e+01 5.5637314308396641e+00 0 0 0
4035 1 2.0601692965074918e+01 -1.9296631471728848e+01 6.9239703260727827e+00 0 0 0
4003 1 -1.0746037622484721e+00 -1.9403611024530605e+01 6.9587050121469867e+00 0 0 0
4045 1 1.6132782015988840e+00 -1.6635789179109054e+01 6.8569096572043122e+00 0 0 0
4008 1 3.1378076892623330e+00 -1.8066856397122269e+01 5.7473535809128649e+00 0 0 0
4053 1 7.1372128938669643e+00 -1.6804356839470334e+01 6.9202615115270341e+00 0 0 0
4016 1 8.5192420015313282e+00 -1.8113345145188870e+01 5.4839821044769499e+00 0 0 0
4061 1 1.2553549034913162e+01 -1.6641654414600747e+01 6.9703417090710005e+00 0 0 0
4024 1 1.3893323070137592e+01 -1.8099299205206254e+01 5.7534148613753082e+00 0 0 0
4069 1 1.7868210410505061e+01 -1.6564705415655311e+01 6.9359329476119438e+00 0 0 0
4032 1 1.9087163856537043e+01 -1.8025222153352324e+01 5.6500145613459525e+00 0 0 0
4077 1 2.3432730525667381e+01 -1.6698662417717479e+01 6.8654639383742584e+00 0 0 0
4040 1 2.4711410899942493e+01 -1.8265938597020853e+01 5.5741422917648071e+00 0 0 0
4042 1 2.5681234039311834e-01 -1.5397296363964553e+01 5.5181377188179965e+00 0 0 0
4043 1 -9.6768273500429680e-01 -1.4067671191273078e+01 6.8094131395208635e+00 0 0 0
4051 1 4.3220657458986578e+00 -1.4148197477552754e+01 6.7981922966860191e+00 0 0 0
4050 1 5.8025649649441569e+00 -1.5505567600530465e+01 5.5413025880942905e+00 0 0 0
4059 1 9.8066322149750746e+00 -1.4018181182503312e+01 6.9967384404741217e+00 0 0 0
4058 1 1.1245653875064772e+01 -1.5278747194479113e+01 5.6354332407095091e+00 0 0 0
4067 1 1.5184554838576794e+01 -1.4055007578045164e+01 6.9506629376780724e+00 0 0 0
4066 1 1.6503285050326117e+01 -1.5315636148824250e+01 5.5111541114097529e+00 0 0 0
4074 1 2.1990958280887238e+01 -1.5445807853922599e+01 5.5084345033447546e+00 0 0 0
4075 1 2.0738235126317594e+01 -1.3917278905341245e+01 6.8891110362583667e+00 0 0 0
4085 1 1.6706949396133342e+00 -1.1329864862537164e+01 6.8893214060468893e+00 0 0 0
4082 1 2.5835145665694709e-01 -1.0035689930436241e+01 5.4656554650520963e+00 0 0 0
4048 1 2.9701962896163039e+00 -1.2669277030446400e+01 5.4916546325606266e+00 0 0 0
4093 1 7.0237377678564261e+00 -1.1320384347230156e+01 6.8556168300727416e+00 0 0 0
4090 1 5.7452010660848085e+00 -9.9758123556154565e+00 5.3844309616415460e+00 0 0 0
4056 1 8.4374281130230493e+00 -1.2690354365862994e+01 5.6189126163931151e+00 0 0 0
4064 1 1.3897710858344960e+01 -1.2750576882378418e+01 5.6140692647489816e+00 0 0 0
4101 1 1.2558292099748083e+01 -1.1311439009570423e+01 6.9231214533584735e+00 0 0 0
4098 1 1.1152639057982910e+01 -9.9805794960127514e+00 5.5390212390961819e+00 0 0 0
4106 1 1.6570233072840654e+01 -1.0014688683091499e+01 5.4363865515620553e+00 0 0 0
4072 1 1.9399664206708032e+01 -1.2620185737739725e+01 5.5219107993743393e+00 0 0 0
4109 1 1.7996745389454059e+01 -1.1273188619018253e+01 6.8583228190470846e+00 0 0 0
4080 1 2.4775130775267890e+01 -1.2776854630156478e+01 5.5010260499979413e+00 0 0 0
4117 1 2.3397326415716829e+01 -1.1283361677935066e+01 6.7427555500522072e+00 0 0 0