LAMMPS data file via write_data, version 30 Jul 2016, timestep = 2000

2000 atoms
1 atom types

-1.1037168687900270e+00 2.6103716868789967e+01 xlo xhi
-2.2074337375800539e+00 5.2207433737579933e+01 ylo yhi
-1.1037168687900270e+00 2.6103716868789967e+01 zlo zhi

Masses

1 28.0855

Atoms # atomic

2 1 4.5105133112852025e-01 -8.5068113595279082e-01 2.7113731779960415e-01 0 0 0
921 1 -1.0989042121562207e+00 1.4158080987408633e+01 9.7164321298334890e+00 0 0 0
621 1 1.2473966006950301e+01 2.4954257261294291e+01 7.0795837625761715e+00 0 0 0
9 1 4.3606828159349345e+00 -2.1739359237344993e+00 -1.0779970960894014e+00 0 0 0
11 1 4.3863624286660077e+00 4.7574164331941238e-01 1.6572200655311089e+00 0 0 0
10 1 5.7769647711564520e+00 -7.8259180901787462e-01 1.9997547397094395e-01 0 0 0
841 1 -9.0133169114639600e-01 3.1765138257372461e+00 9.8609802778667177e+00 0 0 0
18 1 1.1036189639442661e+01 -8.6082097412277936e-01 2.2132921985461099e-01 0 0 0
19 1 9.7915832084590519e+00 5.9187061353757120e-01 1.5630374585064271e+00 0 0 0
21 1 1.2411282980117443e+01 -2.1074704964033257e+00 1.6378063842477695e+00 0 0 0
983 1 1.2478333163877654e+01 2.2329419109392859e+01 9.9319305403337275e+00 0 0 0
45 1 1.6950966580329618e+00 3.1146843319624140e+00 1.5532633335994979e+00 0 0 0
401 1 -1.0754647524378704e+00 -2.1714598287315496e+00 4.4600526631743271e+00 0 0 0
8 1 2.9643542326690313e+00 1.7606650226421472e+00 1.3610315148013019e-01 0 0 0
53 1 7.1040557643769269e+00 3.1096400501872514e+00 1.5211430148920999e+00 0 0 0
16 1 8.4691017107971689e+00 1.9100539732073445e+00 3.7787430022363989e-02 0 0 0
1009 1 4.2896321662418853e+00 2.4936090415755917e+01 9.8122421124110506e+00 0 0 0
42 1 2.4493925980445988e-01 4.4198263884100486e+00 1.6318425824041713e-01 0 0 0
47 1 1.6641817932516167e+00 5.7606617292017530e+00 -1.0685129941043163e+00 0 0 0
51 1 4.4231097938749713e+00 5.8888753205734901e+00 1.5561501548297463e+00 0 0 0
50 1 5.6713119581391291e+00 4.5144984284264202e+00 1.3367618949204593e-01 0 0 0
58 1 1.0962791491527501e+01 4.5955550636629789e+00 2.2401579613541944e-01 0 0 0
59 1 9.6420648506201658e+00 5.9754900682068124e+00 1.6263805162970262e+00 0 0 0
1001 1 -1.0578112749268531e+00 2.4941741180427584e+01 9.7018479595341898e+00 0 0 0
85 1 1.5868849184209679e+00 8.5666893305445644e+00 1.4911823302237583e+00 0 0 0
48 1 3.0044814465113641e+00 7.2088582860941361e+00 1.9454160674438598e-01 0 0 0
56 1 8.2760105006478533e+00 7.3517322290341696e+00 1.6116314948777130e-01 0 0 0
93 1 6.9784884195509989e+00 8.7942267716006377e+00 1.5921755209369819e+00 0 0 0
617 1 9.8705764653514247e+00 2.4950942683087654e+01 4.4854659349939103e+00 0 0 0
82 1 2.9832562047024991e-01 9.9682029285068321e+00 1.6933076752887152e-01 0 0 0
83 1 -1.0992846577376172e+00 1.1284384440380748e+01 1.7363675640812419e+00 0 0 0
90 1 5.5563087394977044e+00 1.0110561994942584e+01 1.7529329324116558e-01 0 0 0
91 1 4.2331779073113829e+00 1.1504823621756309e+01 1.5222851802085049e+00 0 0 0
88 1 2.8615286929654506e+00 1.2790074812933621e+01 1.9351181559301114e-01 0 0 0
817 1 9.9149743390802794e+00 -2.1429563754436600e+00 9.7627728139059577e+00 0 0 0
96 1 8.3820949708751851e+00 1.2658629409064918e+01 3.0407035210395272e-01 0 0 0
98 1 1.1119472564120086e+01 1.0016007337465348e+01 1.7752791698606762e-01 0 0 0
99 1 9.7281083170627554e+00 1.1366572345662812e+01 1.6423512566320051e+00 0 0 0
125 1 1.5638418337848441e+00 1.4029745783204586e+01 1.6500315246623860e+00 0 0 0
122 1 2.7527465638813625e-01 1.5426346238791682e+01 3.6859724131756566e-01 0 0 0
561 1 -1.0769559167233567e+00 1.9608419703568941e+01 4.3729672002393665e+00 0 0 0
130 1 5.5280905106604115e+00 1.5351199281910862e+01 1.7003034934764888e-01 0 0 0
133 1 6.9339542082954484e+00 1.4038335703269718e+01 1.6059839294873262e+00 0 0 0
137 1 9.7167342580786666e+00 1.4214661491706668e+01 -9.5513849371217252e-01 0 0 0
976 1 8.4205253172271295e+00 2.3656596798543820e+01 1.1189769271036969e+01 0 0 0
138 1 1.1182294793569437e+01 1.5538716250342643e+01 4.5342781739141397e-01 0 0 0
131 1 4.4107438160400330e+00 1.6809701195404124e+01 1.5425414774166653e+00 0 0 0
128 1 2.9850335081867949e+00 1.8091901633059344e+01 2.2107344531711753e-01 0 0 0
423 1 1.2339660270374031e+01 5.6459890628608500e-01 4.3904528910838989e+00 0 0 0
136 1 8.4395697721111169e+00 1.8137606598755706e+01 3.9451643012153526e-01 0 0 0
139 1 9.8640734140042436e+00 1.6875589765704618e+01 1.7499505280356704e+00 0 0 0
162 1 2.5520418690394375e-01 2.0821076218194779e+01 2.5903296908806162e-01 0 0 0
165 1 1.7037177446856391e+00 1.9503175827349260e+01 1.6342378523287628e+00 0 0 0
170 1 5.8881345314820157e+00 2.0960899885341959e+01 4.4632621537087175e-01 0 0 0
173 1 7.1029568693358289e+00 1.9510525088494592e+01 1.7195097661285372e+00 0 0 0
178 1 1.1149055758533290e+01 2.0841482245836190e+01 3.6913658915329650e-01 0 0 0
181 1 1.2471913149223163e+01 1.9471694087778911e+01 1.6857178855791206e+00 0 0 0
163 1 -9.7275444681927103e-01 2.2336317667920667e+01 1.5771807311115971e+00 0 0 0
171 1 4.4250165716702785e+00 2.2402980298761577e+01 1.6282351030347688e+00 0 0 0
168 1 2.9133054470108242e+00 2.3673994628923726e+01 3.6992230746388582e-01 0 0 0
176 1 8.3781886402028185e+00 2.3695883052854079e+01 1.6311505920016101e-01 0 0 0
179 1 9.6365555240145682e+00 2.2354681230793769e+01 1.5788119521116697e+00 0 0 0
123 1 -1.0970568944479631e+00 1.6803940941655256e+01 1.6867715635047937e+00 0 0 0
975 1 7.0825436040655045e+00 2.2280932743232299e+01 9.7741272717150167e+00 0 0 0
407 1 1.7251211387387679e+00 6.5342897218454976e-01 4.2413255151384330e+00 0 0 0
801 1 -1.0951490830778603e+00 -2.0664362290567655e+00 9.8539365546659852e+00 0 0 0
6 1 3.1182751012572569e+00 -8.4457548262075388e-01 3.0411105829916401e+00 0 0 0
14 1 8.3877316540539333e+00 -7.8828355853685184e-01 2.9464790991712415e+00 0 0 0
415 1 6.9937697851811498e+00 4.7520838349462874e-01 4.3973320649256546e+00 0 0 0
441 1 -1.0599856735774742e+00 3.1271839910298076e+00 4.2786627026299469e+00 0 0 0
4 1 2.9015847514670162e-01 1.7899155825212343e+00 2.9306301038413904e+00 0 0 0
449 1 4.4711794290462485e+00 3.2901918653484823e+00 4.3279607011796468e+00 0 0 0
12 1 5.7381129811526561e+00 1.8735945057879024e+00 2.9546259599144609e+00 0 0 0
457 1 9.6090953921380624e+00 3.3331003925730882e+00 4.2566540218492754e+00 0 0 0
20 1 1.1105658859155163e+01 1.9759670988302545e+00 3.0000933507130512e+00 0 0 0
447 1 1.7326268955429776e+00 5.8441769428987174e+00 4.1872193235847552e+00 0 0 0
46 1 3.0949585033465397e+00 4.4224251624245925e+00 2.8911562981788270e+00 0 0 0
54 1 8.3350357211619972e+00 4.5855765130763180e+00 2.9524326940839787e+00 0 0 0
455 1 7.0699433582827851e+00 5.9891320671171151e+00 4.2290401341635340e+00 0 0 0
563 1 -1.0283166588807759e+00 2.2236631183161371e+01 7.0087513460290563e+00 0 0 0
44 1 3.7743393276261417e-01 7.1646372407285073e+00 2.8888594117774993e+00 0 0 0
481 1 -8.9895794482928815e-01 8.6335016865131706e+00 4.2748088165978801e+00 0 0 0
52 1 5.6640383884576684e+00 7.3477949197423689e+00 2.8551701951102668e+00 0 0 0
489 1 4.3923876652723139e+00 8.7011254731676555e+00 4.2459552187894491e+00 0 0 0
60 1 1.1229811651492144e+01 7.3113597916551241e+00 3.0178509062083392e+00 0 0 0
497 1 9.6924224761291864e+00 8.7000659202617054e+00 4.2859733971219347e+00 0 0 0
487 1 1.5753258584033281e+00 1.1295555085235861e+01 4.1991053788351334e+00 0 0 0
84 1 1.4184560232974222e-01 1.2677427072548841e+01 2.9727358639124888e+00 0 0 0
86 1 2.9260098088618438e+00 9.9513840524750030e+00 2.8060399698075607e+00 0 0 0
92 1 5.5612937596194900e+00 1.2760863784672754e+01 3.0509852708617635e+00 0 0 0
94 1 8.3210971668230904e+00 1.0059538574105153e+01 3.0405463463573974e+00 0 0 0
495 1 7.1036404841314669e+00 1.1391055132360288e+01 4.1944454508064579e+00 0 0 0
496 1 8.4312306918704820e+00 1.2593772323736244e+01 5.7234896848318790e+00 0 0 0
498 1 1.1210701397465478e+01 9.9876454084940605e+00 5.6370698388837512e+00 0 0 0
100 1 1.1159552571909758e+01 1.2776172195266637e+01 2.9802021982206983e+00 0 0 0
529 1 4.1841296919565201e+00 1.4070013649568539e+01 4.4457968565060790e+00 0 0 0
126 1 2.9452526844157001e+00 1.5534686266333170e+01 3.0090349621309640e+00 0 0 0
134 1 8.3199405177956596e+00 1.5490319814407851e+01 2.9886715711968539e+00 0 0 0
537 1 9.7011915212174173e+00 1.4120109073179506e+01 4.2645505781684827e+00 0 0 0
538 1 1.1150653481372672e+01 1.5420448771590019e+01 5.6853226187735242e+00 0 0 0
527 1 1.5364954985950399e+00 1.6834909947494275e+01 4.4790090605400401e+00 0 0 0
124 1 2.1865248956857750e-01 1.8247276067142195e+01 3.0560424908856207e+00 0 0 0
528 1 3.0388758903399395e+00 1.8233949189251668e+01 5.8061859123097994e+00 0 0 0
132 1 5.6563899471325225e+00 1.8162854399735615e+01 2.9718837692472233e+00 0 0 0
535 1 7.0298715860283432e+00 1.6777430310134946e+01 4.3972657630356062e+00 0 0 0
536 1 8.3680745293094692e+00 1.8296733175458094e+01 5.6168736893417881e+00 0 0 0
543 1 1.2480556350891630e+01 1.6916674339650612e+01 4.4374469987987162e+00 0 0 0
140 1 1.1172648706002830e+01 1.8120192262274216e+01 3.0821939356150780e+00 0 0 0
562 1 2.7867597540133560e-01 2.0814817350586889e+01 5.7534340470313889e+00 0 0 0
569 1 4.3189365216665854e+00 1.9560527494972465e+01 4.3594884958205649e+00 0 0 0
166 1 2.9610882973260915e+00 2.0965720256643436e+01 2.9058210561956548e+00 0 0 0
570 1 5.6354852507882285e+00 2.0941733428767545e+01 5.7608573558674614e+00 0 0 0
174 1 8.4100418616755306e+00 2.0929348983854393e+01 3.0104284188242114e+00 0 0 0
577 1 9.8264557029905539e+00 1.9616879360874030e+01 4.3427164146123651e+00 0 0 0
578 1 1.1185860859840959e+01 2.0846415970689645e+01 5.8448192175544946e+00 0 0 0
164 1 2.2388649675757655e-01 2.3802801092211322e+01 2.9169710151112787e+00 0 0 0
567 1 1.5528204868809303e+00 2.2300182624942149e+01 4.2276853586238836e+00 0 0 0
172 1 5.7607275670578062e+00 2.3726983992013214e+01 3.0706968854004311e+00 0 0 0
568 1 2.9240387351544341e+00 2.3630608125253243e+01 5.5822282043037204e+00 0 0 0
575 1 7.0903810767089155e+00 2.2251736733236946e+01 4.4113013150616220e+00 0 0 0
576 1 8.3628374465701167e+00 2.3655016164087066e+01 5.7614712477388057e+00 0 0 0
180 1 1.1153101566601336e+01 2.3637055875609796e+01 2.9907095306354026e+00 0 0 0
402 1 2.9737560521962897e-01 -7.3443158489836102e-01 5.5514272097499529e+00 0 0 0
403 1 -1.0216050338042793e+00 6.0015958052587048e-01 7.0491586504309245e+00 0 0 0
405 1 1.6048893088011023e+00 -2.1139738927722407e+00 7.0759539928697350e+00 0 0 0
411 1 4.2529821339064346e+00 4.6286105289979090e-01 7.1861985832013406e+00 0 0 0
406 1 2.9246128455271858e+00 -8.5230892786440315e-01 8.6181430578987595e+00 0 0 0
410 1 5.6027563669871663e+00 -9.7295610194354998e-01 5.7012472628685726e+00 0 0 0
413 1 7.1813048525329659e+00 -2.1691519898189937e+00 6.9676328298855248e+00 0 0 0
414 1 8.5229417324151218e+00 -9.3601064165056347e-01 8.4364020881575055e+00 0 0 0
418 1 1.1125161260963413e+01 -9.3146107350605856e-01 5.7497036054386692e+00 0 0 0
419 1 9.7375005879876131e+00 5.1570021349433970e-01 6.9858429477595037e+00 0 0 0
404 1 3.7463895693409072e-01 1.9369630736117969e+00 8.3736149066071128e+00 0 0 0
445 1 1.6685443279889260e+00 3.3042413512269837e+00 7.0359229131864902e+00 0 0 0
408 1 3.0384375872177594e+00 1.9004725027215774e+00 5.7351797300155507e+00 0 0 0
412 1 5.7376473755667901e+00 1.8088657660652103e+00 8.3331492984408211e+00 0 0 0
416 1 8.3407499655661681e+00 1.8525216856419364e+00 5.7119501457286974e+00 0 0 0
453 1 7.0281315125756221e+00 3.1033078167921797e+00 7.1458522359607004e+00 0 0 0
420 1 1.1114902139853346e+01 1.7506558101522067e+00 8.3499571641869395e+00 0 0 0
442 1 3.2191107664378521e-01 4.5559629381663642e+00 5.6206472546705131e+00 0 0 0
968 1 3.0353309473346552e+00 2.3621581751971441e+01 1.1316463272750331e+01 0 0 0
450 1 5.7538359794691081e+00 4.5945203532060228e+00 5.7991878598248352e+00 0 0 0
451 1 4.3538502706951929e+00 6.0045787298021009e+00 7.0260898464138108e+00 0 0 0
446 1 2.9941971912464327e+00 4.6849060685728210e+00 8.5116205084875265e+00 0 0 0
454 1 8.3682843407824521e+00 4.6161110378480306e+00 8.3531996991931479e+00 0 0 0
458 1 1.1105108018118091e+01 4.6557589180715206e+00 5.7307837646251683e+00 0 0 0
459 1 9.7364522713318049e+00 5.9235872914570979e+00 7.0422261182086023e+00 0 0 0
444 1 1.7950455822760478e-01 7.2969885521872859e+00 8.1590102749801137e+00 0 0 0
485 1 1.5422032622120458e+00 8.6821429340573708e+00 6.9634237771455947e+00 0 0 0
448 1 3.0108595476349689e+00 7.3172451583599294e+00 5.5823282911432557e+00 0 0 0
452 1 5.6809536865899819e+00 7.4005131249886871e+00 8.3428893970475766e+00 0 0 0
456 1 8.4207273437417811e+00 7.2450220559280591e+00 5.6686314286673722e+00 0 0 0
493 1 7.0367275963978209e+00 8.7114289512594176e+00 7.0176507256860408e+00 0 0 0
494 1 8.3297342117562341e+00 9.9205710231316395e+00 8.4027247738529756e+00 0 0 0
460 1 1.1119983003921581e+01 7.2258302222085993e+00 8.5393075424174292e+00 0 0 0
43 1 -1.0643311691688275e+00 5.7669816496383035e+00 1.5801935942962979e+00 0 0 0
482 1 1.9408917274585796e-01 1.0138205815806627e+01 5.6577856148724921e+00 0 0 0
484 1 2.1896170690944208e-01 1.2862425836747180e+01 8.3711873699696735e+00 0 0 0
490 1 5.7341459420421881e+00 1.0044382146784471e+01 5.6906264278407876e+00 0 0 0
488 1 2.8266425784405587e+00 1.2653291591343729e+01 5.6785049554241924e+00 0 0 0
486 1 2.8656932571484455e+00 1.0033926949743558e+01 8.4229310691238659e+00 0 0 0
491 1 4.3048355701082510e+00 1.1278354378244655e+01 7.0662436513098017e+00 0 0 0
492 1 5.7383025482358434e+00 1.2698210789925049e+01 8.3362092034235289e+00 0 0 0
499 1 9.8536095506816288e+00 1.1156294856580558e+01 7.0747263617133926e+00 0 0 0
500 1 1.1032285897203991e+01 1.2680459846879554e+01 8.4165499735732148e+00 0 0 0
522 1 1.4615971121100085e-01 1.5564904177147421e+01 5.7553221296701933e+00 0 0 0
525 1 1.6053643097462214e+00 1.4142777089334880e+01 7.0593526216208238e+00 0 0 0
526 1 2.9101167034692321e+00 1.5562689334514063e+01 8.4899624585077635e+00 0 0 0
530 1 5.6625077525682297e+00 1.5511947511512414e+01 5.7584214262562758e+00 0 0 0
533 1 7.1005866780222506e+00 1.4174458484635432e+01 6.9745847002700394e+00 0 0 0
534 1 8.3002939726048321e+00 1.5557889235439029e+01 8.4789810081230694e+00 0 0 0
524 1 2.9324811424184349e-01 1.8353451274726300e+01 8.5681773992927610e+00 0 0 0
531 1 4.4500144065712099e+00 1.6893735433225029e+01 7.1461370619770150e+00 0 0 0
532 1 5.7751359530408264e+00 1.8264237887579736e+01 8.6179747092609542e+00 0 0 0
539 1 9.7065242014375510e+00 1.6778525715981147e+01 6.9593504995476039e+00 0 0 0
540 1 1.1184768679420896e+01 1.8202342471718140e+01 8.3372689965979188e+00 0 0 0
565 1 1.6722677499083134e+00 1.9613432958541587e+01 7.1552897654506600e+00 0 0 0
566 1 2.9291147833671078e+00 2.1079497356768059e+01 8.5577710029532081e+00 0 0 0
573 1 7.0762056307027104e+00 1.9636843721500437e+01 7.0731246114597770e+00 0 0 0
574 1 8.4258417909260430e+00 2.1027876743682128e+01 8.3804494931501381e+00 0 0 0
564 1 3.4768615126844171e-01 2.3712780113886545e+01 8.3173110779733737e+00 0 0 0
541 1 1.2389832323789166e+01 1.4002135504471555e+01 7.0346665170108160e+00 0 0 0
571 1 4.2888637522931905e+00 2.2289250306412939e+01 7.0127481137032559e+00 0 0 0
572 1 5.7027529749440031e+00 2.3632005594961544e+01 8.4904416193937031e+00 0 0 0
461 1 1.2453038349400337e+01 3.2249542982960500e+00 7.0703102540164497e+00 0 0 0
579 1 9.7737698704018658e+00 2.2379806037515596e+01 7.0799584143270913e+00 0 0 0
580 1 1.1231696455007754e+01 2.3619159785538859e+01 8.5243798671688520e+00 0 0 0
802 1 3.3275925140540030e-01 -6.4016720121464032e-01 1.1158646894914787e+01 0 0 0
807 1 1.7000600349667179e+00 6.4813084890386696e-01 9.7918915652749163e+00 0 0 0
809 1 4.3462939621925196e+00 -2.2054844212974878e+00 9.8497803110525002e+00 0 0 0
810 1 5.8069430811874874e+00 -8.4983905562838979e-01 1.1210108289826000e+01 0 0 0
815 1 7.1007219610615797e+00 4.9164796229923163e-01 9.6672328598285766e+00 0 0 0
818 1 1.1091072720946269e+01 -8.7696416221370976e-01 1.1402250141510347e+01 0 0 0
823 1 1.2403927508805777e+01 3.5643605902610848e-01 9.7444450359028778e+00 0 0 0
849 1 4.4553653837206415e+00 3.2344165645131215e+00 9.6862457412680847e+00 0 0 0
808 1 3.0086777893867809e+00 2.0218671439256899e+00 1.1158919246980158e+01 0 0 0
816 1 8.4638483647960356e+00 1.9802542156440157e+00 1.0910433434723577e+01 0 0 0
857 1 9.8902807681312783e+00 3.2943188006070923e+00 9.6873527062819402e+00 0 0 0
843 1 -1.0106590489816987e+00 6.0244336194422994e+00 1.2498118621302055e+01 0 0 0
847 1 1.5023404759748136e+00 6.0717646308262072e+00 9.7363066812392098e+00 0 0 0
842 1 2.5240687360877473e-01 4.6810143327557476e+00 1.1142967203053230e+01 0 0 0
23 1 1.2368396228895984e+01 5.7728851323664343e-01 -1.0604379188888795e+00 0 0 0
855 1 6.9751814183940830e+00 5.9946722963067183e+00 9.6400937179604735e+00 0 0 0
850 1 5.5785070292712762e+00 4.7169879986834298e+00 1.1084410145819472e+01 0 0 0
859 1 9.8043147307628775e+00 6.0219824420220505e+00 1.2389926640498807e+01 0 0 0
858 1 1.1190853211321086e+01 4.5895390687828819e+00 1.1120191075539438e+01 0 0 0
885 1 1.6012108864135244e+00 8.7464191722989355e+00 1.2346362320246305e+01 0 0 0
881 1 -9.7822303786306530e-01 8.7035953304816243e+00 9.6596511767511188e+00 0 0 0
889 1 4.3026370180004845e+00 8.7750985692379970e+00 9.6922496763697836e+00 0 0 0
848 1 3.0120515112718889e+00 7.3109919857818113e+00 1.1086665567950655e+01 0 0 0
856 1 8.2934178195564474e+00 7.2959585912438483e+00 1.1115830502921241e+01 0 0 0
897 1 9.7525661464479274e+00 8.5993779899223082e+00 9.7349439877287871e+00 0 0 0
898 1 1.1239848648620903e+01 9.8918568961653985e+00 1.1006196493394418e+01 0 0 0
887 1 1.6836415928645330e+00 1.1506561072010420e+01 9.7628909828660806e+00 0 0 0
882 1 3.1380709354783287e-01 1.0093379873936371e+01 1.1032615695547184e+01 0 0 0
888 1 3.0526197927048151e+00 1.2934437572888202e+01 1.1153969401957207e+01 0 0 0
896 1 8.3565493685043819e+00 1.2718741115752698e+01 1.1147261659377831e+01 0 0 0
895 1 7.0891350045578694e+00 1.1471191083631139e+01 9.6872348755999482e+00 0 0 0
890 1 5.6930449951196467e+00 1.0072594373283838e+01 1.1077087078341529e+01 0 0 0
899 1 9.8968267408905266e+00 1.1369734088609251e+01 1.2388415705471351e+01 0 0 0
903 1 1.2444991607749216e+01 1.1477589012266847e+01 9.7727154468450372e+00 0 0 0
925 1 1.5257264385224276e+00 1.4238931998523176e+01 1.2417891677782590e+01 0 0 0
922 1 2.5840158719426315e-01 1.5491387910904722e+01 1.1174823236193250e+01 0 0 0
930 1 5.7073646300596756e+00 1.5443239010882049e+01 1.1132910577310328e+01 0 0 0
929 1 4.4167825398527896e+00 1.4181298777880086e+01 9.7398133211714182e+00 0 0 0
978 1 1.1135949842306289e+01 2.0986700254365374e+01 1.1098321308349352e+01 0 0 0
938 1 1.1271147532810986e+01 1.5417687705526559e+01 1.1132410738154380e+01 0 0 0
937 1 9.6843314459000922e+00 1.4090374547977454e+01 9.7673707322786996e+00 0 0 0
927 1 1.6423323632358575e+00 1.7000065642847357e+01 9.8398644498521204e+00 0 0 0
928 1 3.0524870330056566e+00 1.8214323490768816e+01 1.1233313709951137e+01 0 0 0
935 1 7.1165563266765197e+00 1.6775462785080322e+01 9.9800529467720551e+00 0 0 0
936 1 8.5453598783559102e+00 1.8306857803890299e+01 1.1088251546782853e+01 0 0 0
939 1 9.8413098685355926e+00 1.6846340885139092e+01 1.2429165682610249e+01 0 0 0
967 1 1.6047019297032850e+00 2.2317322178469926e+01 9.8646035234359264e+00 0 0 0
977 1 9.8844139848504859e+00 1.9701991401878278e+01 9.7721952087911976e+00 0 0 0
961 1 -1.0802517913166121e+00 1.9715003081513569e+01 9.9379341658563671e+00 0 0 0
962 1 3.2742937800915567e-01 2.0940755885557362e+01 1.1265110011007243e+01 0 0 0
969 1 4.3643982860351818e+00 1.9598351519913404e+01 9.9359632053126532e+00 0 0 0
973 1 7.0617656751756419e+00 1.9678587211425175e+01 1.2491110194940966e+01 0 0 0
970 1 5.8008809057715416e+00 2.0992996879111157e+01 1.1263434035543741e+01 0 0 0
1005 1 1.6452033969574233e+00 2.4994968937944918e+01 1.2476708623628518e+01 0 0 0
805 1 1.6542574333998243e+00 -2.0932271707283525e+00 1.2310136324074536e+01 0 0 0
811 1 4.3484767771471358e+00 5.5799471107086862e-01 1.2391605362717160e+01 0 0 0
853 1 7.0250706717031051e+00 3.2694070752975817e+00 1.2206011970945257e+01 0 0 0
893 1 7.0835425002444978e+00 8.6202679237109834e+00 1.2498151292116468e+01 0 0 0
883 1 -1.0667049061295488e+00 1.1520833927476685e+01 1.2302124579869581e+01 0 0 0
891 1 4.4030468137674319e+00 1.1495902953774719e+01 1.2404903084465724e+01 0 0 0
175 1 7.1111919420785838e+00 2.2266883236313291e+01 -1.0254541180347907e+00 0 0 0
931 1 4.3319035495563103e+00 1.6912662310051513e+01 1.2485618510072317e+01 0 0 0
167 1 1.6746243204151903e+00 2.2282796401725765e+01 -1.0416753470422329e+00 0 0 0
177 1 9.7954254082203587e+00 1.9493645596064866e+01 -1.0803991042035435e+00 0 0 0
55 1 6.9925625811931091e+00 5.9036477832653533e+00 -1.0767000364194992e+00 0 0 0
87 1 1.5837338922490976e+00 1.1320228092515467e+01 -1.1006064441103618e+00 0 0 0
127 1 1.6338596463167463e+00 1.6665578276109809e+01 -1.0610777024444644e+00 0 0 0
143 1 1.2420942785416504e+01 1.6873371724445843e+01 -1.0045132731408266e+00 0 0 0
169 1 4.3447467696738222e+00 1.9653169241082129e+01 -8.8255371421825757e-01 0 0 0
1207 1 1.5892674951763408e+00 5.3944395912442655e-01 1.5148207891386367e+01 0 0 0
209 1 4.3128402739945022e+00 2.4934684591076078e+01 2.6091818255720447e+01 0 0 -1
806 1 3.0247713801170337e+00 -7.3509771598980600e-01 1.3757016543830368e+01 0 0 0
1601 1 -9.9290543782762020e-01 -2.1942711852802788e+00 2.0477318389880001e+01 0 0 0
814 1 8.3755221753125291e+00 -9.6123750614702819e-01 1.3936539339690659e+01 0 0 0
1215 1 7.0888164407153154e+00 6.0033422567645800e-01 1.5122689989828009e+01 0 0 0
819 1 9.7041267749938456e+00 5.4624182491463680e-01 1.2516869989418751e+01 0 0 0
1780 1 1.1141367452540532e+01 2.3733788836862797e+01 2.4748615725744532e+01 0 0 0
804 1 1.4895318672930258e-01 1.8551345790111615e+00 1.3846002067835192e+01 0 0 0
845 1 1.6069711045042365e+00 3.1742166274040362e+00 1.2508145827556621e+01 0 0 0
1249 1 4.4727317186201612e+00 3.2273698058473879e+00 1.5074087292938998e+01 0 0 0
812 1 5.8033518830332405e+00 1.7777815105204589e+00 1.3627115878283396e+01 0 0 0
1613 1 7.1450297328914436e+00 -2.1352332717866815e+00 2.3432744706764129e+01 0 0 0
1257 1 9.7287933196578713e+00 3.1499611453916030e+00 1.5145017817142882e+01 0 0 0
820 1 1.1156612888363261e+01 1.7393343658828222e+00 1.3850481187431091e+01 0 0 0
1247 1 1.6643656302307956e+00 6.0307264658153965e+00 1.5215897676589286e+01 0 0 0
846 1 2.9687777715977628e+00 4.5964220470647126e+00 1.3849055137148710e+01 0 0 0
854 1 8.3612781459353851e+00 4.5133300797210012e+00 1.3640158283891004e+01 0 0 0
1255 1 6.9151161729355435e+00 6.0525969939801589e+00 1.5127771953153637e+01 0 0 0
1263 1 1.2404874533580163e+01 5.9147424468287779e+00 1.5074794424743827e+01 0 0 0
844 1 2.3470734185785347e-01 7.4215766994731798e+00 1.3804184286935559e+01 0 0 0
1779 1 9.8372405962818892e+00 2.2343750536490113e+01 2.3377423741451672e+01 0 0 0
1289 1 4.2287708675234033e+00 8.9263566984012694e+00 1.5198826817380063e+01 0 0 0
852 1 5.4910160564410839e+00 7.4529267267740451e+00 1.3935503265190066e+01 0 0 0
1809 1 4.2202470439036253e+00 2.4997069570314864e+01 2.0791208528881739e+01 0 0 0
860 1 1.1052305760285742e+01 7.3600926921021506e+00 1.3799625129486365e+01 0 0 0
1297 1 9.7261288077392152e+00 8.8227307754277504e+00 1.5285064346945772e+01 0 0 0
1287 1 1.5095289576342834e+00 1.1510827058674138e+01 1.5053198249573002e+01 0 0 0
884 1 2.4086343702486643e-01 1.2904669781683262e+01 1.3672063471116020e+01 0 0 0
1213 1 7.0663502149641442e+00 -2.1623148334244959e+00 1.7851191240554254e+01 0 0 0
886 1 2.9835014403915259e+00 1.0188424226616773e+01 1.3689265330367698e+01 0 0 0
1413 1 6.9246140356923744e+00 2.4973881843703268e+01 1.7940594027066680e+01 0 0 0
892 1 5.6145028409549163e+00 1.2695963706256144e+01 1.4050722917099716e+01 0 0 0
1295 1 7.1439996676928610e+00 1.1375996255788714e+01 1.5319010435763289e+01 0 0 0
894 1 8.4582838280248538e+00 1.0066259034187647e+01 1.3786953765144185e+01 0 0 0
1303 1 1.2479192292034167e+01 1.1364273604411336e+01 1.5145792458643244e+01 0 0 0
900 1 1.1184964071403845e+01 1.2747935988163869e+01 1.3815715974254223e+01 0 0 0
1405 1 1.5890386843854305e+00 2.4755240823025488e+01 1.8080698281960430e+01 0 0 0
1329 1 4.2593562242887790e+00 1.4136847703854226e+01 1.5198332549251148e+01 0 0 0
926 1 2.9204986425526118e+00 1.5556235977233529e+01 1.3850943247072438e+01 0 0 0
934 1 8.3806981518373895e+00 1.5336658456974016e+01 1.3810773412789041e+01 0 0 0
1337 1 9.7603004586996320e+00 1.4073436253236366e+01 1.5177645136085525e+01 0 0 0
1772 1 5.6976918108155816e+00 2.3635665269860628e+01 2.4814987619802423e+01 0 0 0
1327 1 1.5691708354380638e+00 1.6829351581601564e+01 1.5191023433494301e+01 0 0 0
924 1 1.1740403230495754e-01 1.8142536260029441e+01 1.3918645544760158e+01 0 0 0
1209 1 4.3002444336231394e+00 -2.1831840847699553e+00 1.5249636297146017e+01 0 0 0
932 1 5.8946687790199341e+00 1.8256338106414976e+01 1.3868432480994779e+01 0 0 0
1335 1 7.1604812463426981e+00 1.6749723184902461e+01 1.5175543732415639e+01 0 0 0
940 1 1.1141703402455432e+01 1.8118129962599575e+01 1.3913021014351132e+01 0 0 0
1813 1 7.1017095221389956e+00 2.4958528095037966e+01 2.3404896601987502e+01 0 0 0
1369 1 4.4273861396230032e+00 1.9510699868333777e+01 1.5260559636944274e+01 0 0 0
966 1 2.8698072450066174e+00 2.0800181587305349e+01 1.3988237567280436e+01 0 0 0
974 1 8.4184787980591995e+00 2.0898659683920776e+01 1.3814423183763214e+01 0 0 0
1377 1 9.7978748205892963e+00 1.9524713342136760e+01 1.5227532499109294e+01 0 0 0
964 1 2.0758151375785755e-01 2.3709072434594940e+01 1.3739413820463197e+01 0 0 0
1367 1 1.5676128791409540e+00 2.2343689948021137e+01 1.5256196024328780e+01 0 0 0
1781 1 1.2367399711142516e+01 1.9533240304080906e+01 2.3419728718407168e+01 0 0 0
1723 1 -1.0487609589291793e+00 1.6674461774091391e+01 2.3326275529569255e+01 0 0 0
972 1 5.6662364928399214e+00 2.3616971435746180e+01 1.4027275509736485e+01 0 0 0
1375 1 7.0248553513393004e+00 2.2233279487819573e+01 1.5332455490259219e+01 0 0 0
980 1 1.1097916096997343e+01 2.3739116532343001e+01 1.3939771168472973e+01 0 0 0
1202 1 3.0057603612002193e-01 -9.9861788489247405e-01 1.6454539483772052e+01 0 0 0
1205 1 1.6618143335253623e+00 -2.1832734749409410e+00 1.8022537001908599e+01 0 0 0
1211 1 4.3155318047302957e+00 4.1234033326823505e-01 1.7803807497226661e+01 0 0 0
1210 1 5.7747853596496332e+00 -8.0025435130799483e-01 1.6402045435804840e+01 0 0 0
1218 1 1.1154033637401751e+01 -8.2676987361668230e-01 1.6675782577189626e+01 0 0 0
1219 1 9.7561191978226827e+00 5.6934261889993387e-01 1.7821741016586532e+01 0 0 0
1245 1 1.6110245021906879e+00 3.2675283774634609e+00 1.7883090851651644e+01 0 0 0
1208 1 3.0405707895929184e+00 1.8911784078276801e+00 1.6497268960313331e+01 0 0 0
1253 1 7.0112334240595784e+00 3.4839899589386309e+00 1.7846181194970175e+01 0 0 0
1216 1 8.3359760714861419e+00 1.7423755311931819e+00 1.6586144341879798e+01 0 0 0
1220 1 1.1083315177144167e+01 1.9281369156677004e+00 1.9214327366280209e+01 0 0 0
1242 1 3.8245405027961432e-01 4.5200139324481015e+00 1.6439986226868331e+01 0 0 0
1251 1 4.2017667918471160e+00 5.9646796138207110e+00 1.7832124582605495e+01 0 0 0
1250 1 5.6288020643961323e+00 4.6515828792346694e+00 1.6441488873988202e+01 0 0 0
1254 1 8.4704859665636096e+00 4.7199604575754313e+00 1.9234186593314782e+01 0 0 0
1258 1 1.1098273268318676e+01 4.5847055967527908e+00 1.6409011067440080e+01 0 0 0
1259 1 9.6424076438474291e+00 5.9834029757017007e+00 1.7805719311307357e+01 0 0 0
1285 1 1.5846507917805701e+00 8.6265137077078933e+00 1.7991335523614335e+01 0 0 0
1248 1 2.9408615931863356e+00 7.4681130161306903e+00 1.6553937194968146e+01 0 0 0
1256 1 8.2996993621271677e+00 7.4501410492909965e+00 1.6498944542465498e+01 0 0 0
1293 1 7.0956964204223256e+00 8.6067445677988044e+00 1.7932195070648159e+01 0 0 0
1301 1 1.2361973584906433e+01 8.7491271408129752e+00 1.7844720337739982e+01 0 0 0
1283 1 -1.0137215869969254e+00 1.1435472061303576e+01 1.7885758383066001e+01 0 0 0
1282 1 2.5828058992598740e-01 1.0050239713269887e+01 1.6541885356922400e+01 0 0 0
1291 1 4.3353487022710739e+00 1.1447707180054744e+01 1.7988107694240348e+01 0 0 0
1290 1 5.6444088278666280e+00 1.0080425032022942e+01 1.6611476961224760e+01 0 0 0
1288 1 2.9443542719579470e+00 1.2769760034278312e+01 1.6527470983812275e+01 0 0 0
1286 1 2.9689702737058181e+00 9.9906736506691729e+00 1.9332219472560730e+01 0 0 0
1296 1 8.4120976383415478e+00 1.2759919339319845e+01 1.6695935410573917e+01 0 0 0
1299 1 9.8283997705338848e+00 1.1482471402606668e+01 1.8037866530336874e+01 0 0 0
1298 1 1.1065145918161766e+01 1.0183869697408650e+01 1.6473687457668767e+01 0 0 0
1325 1 1.5530685109627771e+00 1.4164676472412644e+01 1.7871738292002274e+01 0 0 0
1322 1 4.3773491010355844e-05 1.5576842449960052e+01 1.6605570091732289e+01 0 0 0
1326 1 2.9492708878605582e+00 1.5604835176424434e+01 1.9264403575756525e+01 0 0 0
1330 1 5.6926996392878735e+00 1.5489347413401905e+01 1.6534883464870216e+01 0 0 0
1333 1 6.9977320642550787e+00 1.4151306438901116e+01 1.7970956265018824e+01 0 0 0
1334 1 8.4846514743818133e+00 1.5495083872586990e+01 1.9308631548330830e+01 0 0 0
1771 1 4.3152295475502127e+00 2.2251065858273346e+01 2.3494575092612731e+01 0 0 0
1338 1 1.1137803181605777e+01 1.5499310417793136e+01 1.6444578365901709e+01 0 0 0
1324 1 6.4428494886764831e-02 1.8203557520776585e+01 1.9390004288273833e+01 0 0 0
1331 1 4.3696674780639500e+00 1.6988435570452225e+01 1.7920070110783549e+01 0 0 0
1328 1 2.8034322907612901e+00 1.8235248529520106e+01 1.6545257939426769e+01 0 0 0
1336 1 8.3794369963302380e+00 1.8218428108903986e+01 1.6619970094461802e+01 0 0 0
1332 1 5.8027401989039458e+00 1.8269470510285760e+01 1.9486886909735297e+01 0 0 0
1339 1 9.7998664632306891e+00 1.6858537100492814e+01 1.7923025191919379e+01 0 0 0
1340 1 1.1052946338689662e+01 1.8146800848466842e+01 1.9338308181826406e+01 0 0 0
1362 1 2.8665679009169703e-01 2.0997554245490377e+01 1.6748969986026577e+01 0 0 0
1365 1 1.6166322989441477e+00 1.9604825444794677e+01 1.8134227536323465e+01 0 0 0