LAMMPS data file via write_data, version 30 Jul 2016, timestep = 2000

5000 atoms
1 atom types

-1.1037168688014471e+00 2.6103716868801385e+01 xlo xhi
-5.5185843440072304e+00 1.3051858434400725e+02 ylo yhi
-1.1037168688014471e+00 2.6103716868801385e+01 zlo zhi

Masses

1 28.0855

Atoms # atomic

4083 1 2.6089721570400489e+01 8.0748885183365253e+00 2.3508005701492536e+01 -1 0 0
2 1 2.4654720200275204e-01 -4.1489158795274568e+00 2.8901516881001243e-01 0 0 0
3 1 -1.0178347312074842e+00 -2.8994398372910237e+00 1.7184102797847829e+00 0 0 0
11 1 4.4552254529656361e+00 -2.8196371930983792e+00 1.6859884570110497e+00 0 0 0
10 1 5.6710594827444503e+00 -4.1605816270451799e+00 3.6701913647262896e-01 0 0 0
19 1 9.6613081629098776e+00 -2.6938867270293891e+00 1.6964851963534695e+00 0 0 0
18 1 1.0991734690218799e+01 -4.1710069669117118e+00 4.4785485504291017e-01 0 0 0
4157 1 2.3539746368569844e+01 1.0726200626787957e+01 2.3455344711528962e+01 0 0 0
27 1 1.5107049043430857e+01 -2.6598225483678291e+00 1.6711258408329268e+00 0 0 0
26 1 1.6620223985613816e+01 -4.1372924674392531e+00 4.3136192933722345e-01 0 0 0
153 1 2.0597642594411436e+01 1.0804919425950755e+01 2.6098753041218622e+01 0 0 -1
4116 1 2.1969147738276558e+01 9.5188537101197124e+00 2.4650143138840399e+01 0 0 0
34 1 2.2073973212368990e+01 -4.1234136013086680e+00 3.1240136797674006e-01 0 0 0
35 1 2.0607953114953016e+01 -2.7413963477881413e+00 1.6625522084592850e+00 0 0 0
111 1 1.8086929773100490e+01 8.0900748100569881e+00 2.6057611859413488e+01 0 0 -1
41 1 -1.0165410276772813e+00 -2.3902391096676592e-01 -9.5136368276972016e-01 0 0 0
45 1 1.6124132396896615e+00 -4.7639004279434481e-02 1.7023065108174316e+00 0 0 0
42 1 2.3713741158310400e-01 1.3088927132707278e+00 3.4416084523761670e-01 0 0 0
49 1 4.5209895194824350e+00 4.3448875170085379e-03 -9.5450957385954516e-01 0 0 0
8 1 3.1153205194580744e+00 -1.4433012843638546e+00 4.5043584805803188e-01 0 0 0
53 1 7.2577967182031067e+00 -1.0640430313805192e-01 1.6714915331135345e+00 0 0 0
16 1 8.4068756567349006e+00 -1.3926901695313323e+00 2.9160422021228544e-01 0 0 0
61 1 1.2641984295852096e+01 -2.7507822762818920e-02 1.7475705163760689e+00 0 0 0
24 1 1.3719136222668100e+01 -1.4524698132145408e+00 3.3588828207955751e-01 0 0 0
58 1 1.1296920766482291e+01 1.2626270111988416e+00 2.7139691969424395e-01 0 0 0
69 1 1.8083193054780612e+01 6.1084191084632275e-03 1.7490189928598101e+00 0 0 0
32 1 1.9358892994725707e+01 -1.3591892672699251e+00 2.9307636684715166e-01 0 0 0
77 1 2.3436543333315694e+01 -8.8513320623875860e-02 1.7601269817699705e+00 0 0 0
40 1 2.4793438117869488e+01 -1.6082634309791877e+00 3.3937066655138626e-01 0 0 0
43 1 2.5904424273583654e+01 2.6117511022936744e+00 1.6253988047677335e+00 -1 0 0
47 1 1.4948327349532140e+00 2.6372649091116478e+00 -1.0229347339570312e+00 0 0 0
51 1 4.3884244299218294e+00 2.6578633566680412e+00 1.6295707741028806e+00 0 0 0
48 1 3.0239976513696383e+00 4.0235069368987144e+00 3.8837663553134971e-01 0 0 0
50 1 5.8348966536137361e+00 1.2452518939686781e+00 3.4943638079453093e-01 0 0 0
55 1 7.0199250224040606e+00 2.6602622517249199e+00 2.6019922249503843e+01 0 0 -1
56 1 8.3693478431717399e+00 3.9867169893878374e+00 2.8808989464635448e-01 0 0 0
59 1 9.7109543596632548e+00 2.6265131998612956e+00 1.5779709265952635e+00 0 0 0
63 1 1.2564674769038739e+01 2.6351599304347881e+00 2.6074075729656531e+01 0 0 -1
64 1 1.3849071966582709e+01 4.0669947628819880e+00 2.3377676753598153e-01 0 0 0
66 1 1.6637408637724199e+01 1.2253486069110149e+00 4.3202342485908479e-01 0 0 0
67 1 1.5192572109467626e+01 2.6503263765185752e+00 1.6088774110944468e+00 0 0 0
72 1 1.9225143605575742e+01 3.9584589355337010e+00 2.9500672013381080e-01 0 0 0
74 1 2.2027254420428111e+01 1.3012565018388202e+00 4.6934290959831082e-01 0 0 0
75 1 2.0624142794635635e+01 2.7363935762631129e+00 1.6707235179975781e+00 0 0 0
79 1 2.3421269823109483e+01 2.6072672999674897e+00 -1.0792951402974233e+00 0 0 0
80 1 2.4665267180689099e+01 4.1691377147869089e+00 2.6188371241318886e-01 0 0 0
82 1 2.4985318901595172e-01 6.7167529113915183e+00 2.8716824097348154e-01 0 0 0
85 1 1.5187044766765367e+00 5.3025017983385156e+00 1.7130018436043977e+00 0 0 0
89 1 4.0740421809551552e+00 5.3749680304011562e+00 -1.0769436530459324e+00 0 0 0
90 1 5.6043022300873098e+00 6.7457083872851094e+00 1.7909666819449671e-01 0 0 0
93 1 6.8751163924345278e+00 5.3802923425669098e+00 1.5437773854668446e+00 0 0 0
99 1 9.7544987625887174e+00 8.1537436811800408e+00 1.7695071861891971e+00 0 0 0
98 1 1.1194811391588134e+01 6.7482694385609712e+00 2.6973290537985473e-01 0 0 0
101 1 1.2544896048619915e+01 5.5037473495755638e+00 1.8059231435673431e+00 0 0 0
106 1 1.6578739615020631e+01 6.8926517705377943e+00 2.1585618500255219e-01 0 0 0
109 1 1.7775421003262313e+01 5.4135088717762070e+00 1.6551539588826478e+00 0 0 0
114 1 2.1933012529074581e+01 6.8159829857290894e+00 2.7123641663652265e-01 0 0 0
117 1 2.3266943332923798e+01 5.4739453425227200e+00 1.6104126837512720e+00 0 0 0
119 1 2.3277792638356885e+01 8.0300158573927813e+00 2.6041301573874520e+01 0 0 -1
87 1 1.4850417298007903e+00 8.0503463516559020e+00 -9.8125508154795094e-01 0 0 0
125 1 1.6347119735297693e+00 1.0689377904268687e+01 1.7454374828895052e+00 0 0 0
91 1 4.2033492481610866e+00 7.9401988414204983e+00 1.7481767180526635e+00 0 0 0
88 1 2.9866490645665973e+00 9.4487655638842138e+00 3.4349322434918966e-01 0 0 0
133 1 7.0018598302663619e+00 1.0781710439855441e+01 1.5888666664182227e+00 0 0 0
96 1 8.4120967473698585e+00 9.3018835198933392e+00 3.2654106240599756e-01 0 0 0
137 1 9.8381753769747817e+00 1.0783845779518344e+01 -9.5196198724663372e-01 0 0 0
103 1 1.2438328283094247e+01 8.1108340666527408e+00 -1.0928130245740846e+00 0 0 0
141 1 1.2508239577144360e+01 1.0830390017595073e+01 1.7865531793331788e+00 0 0 0
104 1 1.3709723680479836e+01 9.4852955125934546e+00 2.5755811174668747e-01 0 0 0
107 1 1.5255132923819735e+01 8.1933821015598127e+00 1.5709811330524688e+00 0 0 0
149 1 1.8038588157011837e+01 1.0798213570121110e+01 1.6266784965760781e+00 0 0 0
112 1 1.9384882147873324e+01 9.4267622792310206e+00 1.8050515039276394e-01 0 0 0
115 1 2.0671000226374975e+01 8.0341350967795702e+00 1.7290515100804653e+00 0 0 0
83 1 2.6033456260458433e+01 8.1852463425001876e+00 1.5165593885790425e+00 -1 0 0
157 1 2.3396871575991824e+01 1.0902693879417622e+01 1.6584630774397020e+00 0 0 0
120 1 2.4540024963309730e+01 9.4947969638832834e+00 1.2493189079254417e-01 0 0 0
1007 1 1.5891722378195703e+00 -2.9008361656434980e+00 4.3911447967527559e+00 0 0 0
6 1 3.0431901510649850e+00 -4.2528728423251847e+00 2.9942841954969439e+00 0 0 0
1015 1 7.0615040646255860e+00 -2.7248591245408953e+00 4.3644273570560213e+00 0 0 0
14 1 8.3367058309719724e+00 -4.1509781599739313e+00 3.0839541007500020e+00 0 0 0
1023 1 1.2593375390303418e+01 -2.8623785684959069e+00 4.3153996058320612e+00 0 0 0
22 1 1.3788638894392728e+01 -4.2107565338482988e+00 2.8678343291741246e+00 0 0 0
4149 1 1.8117417981635150e+01 1.0738436511487839e+01 2.3401497045886686e+01 0 0 0
1031 1 1.7967073530006520e+01 -2.8637404425828636e+00 4.5374985849744149e+00 0 0 0
30 1 1.9252925164587705e+01 -4.0608442728863636e+00 3.0604985246463317e+00 0 0 0
1033 1 2.0796000362847263e+01 -5.4491627705405428e+00 4.2252505434948500e+00 0 0 0
4108 1 1.6606787255074323e+01 9.3764954579363664e+00 2.4692145769789072e+01 0 0 0
38 1 2.4687844599510154e+01 -4.3153025217053695e+00 2.9660618174984537e+00 0 0 0
1039 1 2.3330260932951163e+01 -2.9254869207652332e+00 4.3903887631289313e+00 0 0 0
4 1 2.3686890507025918e-01 -1.3848132568209055e+00 3.0438482926863104e+00 0 0 0
1049 1 4.2517230860645814e+00 1.8208449384270375e-01 4.3118172613247818e+00 0 0 0
46 1 2.9273560931322988e+00 1.4236907866244664e+00 2.9426071131421381e+00 0 0 0
12 1 5.6747621490180213e+00 -1.2400055510157832e+00 3.0819188541905573e+00 0 0 0
1057 1 9.8940529655150691e+00 -6.9253358046538746e-02 4.3636889438738882e+00 0 0 0
54 1 8.5307848689613657e+00 1.2278671115957445e+00 2.9947898931341963e+00 0 0 0
20 1 1.1226486112078772e+01 -1.4715311454831401e+00 2.9542620527525365e+00 0 0 0
1065 1 1.5372423339684829e+01 -2.0468427482012948e-02 4.4971993840536824e+00 0 0 0
28 1 1.6575595536003505e+01 -1.3180765200036728e+00 3.0412606449178683e+00 0 0 0
1073 1 2.0603496608209479e+01 -1.1617506348724838e-01 4.3485165620990678e+00 0 0 0
36 1 2.2020998632948277e+01 -1.4489550288470396e+00 3.0774196762002068e+00 0 0 0
1041 1 2.5990882311558323e+01 -1.5658185300077240e-01 4.4664244469423915e+00 -1 0 0
44 1 3.9840628799948645e-02 3.9337445431918923e+00 2.9909739596392146e+00 0 0 0
1047 1 1.5016630331727894e+00 2.6103493844924150e+00 4.2034204125807042e+00 0 0 0
52 1 5.7600232079438722e+00 3.9796091752081688e+00 2.9754133784080121e+00 0 0 0
1055 1 7.1209873219184940e+00 2.5751005166029994e+00 4.4393028299543404e+00 0 0 0
60 1 1.1305405009092697e+01 3.9281904728703050e+00 2.9016569397530914e+00 0 0 0
1063 1 1.2662476067786789e+01 2.7053120670836339e+00 4.4981065157651381e+00 0 0 0
62 1 1.3965278088501998e+01 1.3483662994654599e+00 3.0594923962203309e+00 0 0 0
68 1 1.6576204218429638e+01 4.0537487578685063e+00 3.0895950901240070e+00 0 0 0
70 1 1.9365302857712692e+01 1.3495229115282954e+00 3.1326094599824854e+00 0 0 0
1071 1 1.7922022793860091e+01 2.7297557683564730e+00 4.3586362519034809e+00 0 0 0
76 1 2.2005728773825247e+01 4.0288158423646427e+00 3.1158163549196440e+00 0 0 0
78 1 2.4763138871586161e+01 1.2337745596325238e+00 3.1142260701408113e+00 0 0 0
1079 1 2.3301706361930197e+01 2.5466275087087267e+00 4.4758263649097518e+00 0 0 0
1081 1 2.5983388726759785e+01 5.4470603586239816e+00 4.3322232338564062e+00 -1 0 0
1087 1 1.4684159380948849e+00 8.0244093039913764e+00 4.4760849002627117e+00 0 0 0
1089 1 4.3802498168028663e+00 5.2862925998836898e+00 4.2817389622213247e+00 0 0 0
86 1 2.9045244524984906e+00 6.5664997025539487e+00 3.0472776912525812e+00 0 0 0
1095 1 7.1232196356417878e+00 8.0968418107119113e+00 4.4585255698923305e+00 0 0 0
94 1 8.3521991862385470e+00 6.6206474362682624e+00 2.9338001436099153e+00 0 0 0
1097 1 9.8262531807689086e+00 5.2828438856545761e+00 4.2177748947037985e+00 0 0 0
102 1 1.4009400133061927e+01 6.8853649377926605e+00 2.9798862157430701e+00 0 0 0
1103 1 1.2480879133622894e+01 8.0749030099888177e+00 4.5282803923570523e+00 0 0 0
1105 1 1.5089912378146293e+01 5.3867351527940528e+00 4.2654586083308406e+00 0 0 0
110 1 1.9133399252861604e+01 6.7639740315929249e+00 3.0178013440904619e+00 0 0 0
1113 1 2.0529652680130834e+01 5.4618469543671706e+00 4.3402053167903452e+00 0 0 0
118 1 2.4720560165550975e+01 6.8026335964076585e+00 2.9320225230373773e+00 0 0 0
1119 1 2.3231586200523182e+01 7.9711697801150310e+00 4.3853839390192775e+00 0 0 0
1121 1 2.6083928067938309e+01 1.0773893774608981e+01 4.2796773494377893e+00 -1 0 0
84 1 2.4888914045787619e-01 9.3787289083210350e+00 3.0387952146990176e+00 0 0 0
1129 1 4.3835400881854838e+00 1.0667194861392941e+01 4.3487698490805524e+00 0 0 0
92 1 5.7124683158701499e+00 9.2831957940629213e+00 2.9839203476461136e+00 0 0 0
1137 1 9.8168695246014401e+00 1.0861299551387914e+01 4.3894042411481804e+00 0 0 0
100 1 1.1197690413413024e+01 9.4804525169206322e+00 3.2240185038725375e+00 0 0 0
1145 1 1.5242542109951652e+01 1.0840564969303365e+01 4.4145990125049011e+00 0 0 0
108 1 1.6595520869737499e+01 9.5506602354248287e+00 2.9594079395642749e+00 0 0 0
1111 1 1.7773206573408466e+01 8.1067183048449927e+00 4.3601468483645993e+00 0 0 0
1153 1 2.0729834049472135e+01 1.0825503913348477e+01 4.4314456896572976e+00 0 0 0
116 1 2.2051195873923096e+01 9.4933043360504481e+00 3.0057430661433324e+00 0 0 0
1002 1 2.2919115545023827e-01 -4.2151472570130970e+00 5.8696533997907077e+00 0 0 0
1003 1 2.5958173865687797e+01 -2.8263139371193935e+00 7.2291994058303866e+00 -1 0 0
1011 1 4.2194408375530088e+00 -2.7579968308941734e+00 7.0484038435588756e+00 0 0 0
1010 1 5.6762852632997713e+00 -4.0608658540046312e+00 5.6897677891411300e+00 0 0 0
1013 1 7.0896816738153827e+00 -5.4127534441984269e+00 7.2363961765619713e+00 0 0 0
1019 1 9.8146896777683175e+00 -2.6329048665674932e+00 6.9801456189600053e+00 0 0 0
1018 1 1.1110298835007786e+01 -4.1587071934316571e+00 5.6626607271130256e+00 0 0 0
1021 1 1.2428002772792711e+01 -5.4195826588366733e+00 7.1085774776482928e+00 0 0 0
1027 1 1.5231092089924333e+01 -2.6836623097940393e+00 6.9408772695684888e+00 0 0 0
1026 1 1.6565378210483168e+01 -4.3001555983585460e+00 5.7278008533162961e+00 0 0 0
145 1 1.5214015057971253e+01 1.0708831358837202e+01 -1.0923486961275692e+00 0 0 0
1034 1 2.2024440392467543e+01 -4.1780502153105745e+00 5.8591498871886865e+00 0 0 0
1035 1 2.0636434153163563e+01 -2.9229075621560461e+00 7.2949015678079236e+00 0 0 0
1045 1 1.5437647141918729e+00 -1.2546848340888131e-01 7.1467677653131521e+00 0 0 0
1042 1 1.7527472478062731e-01 1.2294834313786069e+00 5.6626975755752005e+00 0 0 0
1008 1 2.9738779233636730e+00 -1.3164671892233191e+00 5.6168328703993708e+00 0 0 0
1053 1 6.9368678722709385e+00 1.2195591708864055e-01 7.0166020759119210e+00 0 0 0
1050 1 5.6457110248776257e+00 1.4419200235942269e+00 5.7314475831333187e+00 0 0 0
1016 1 8.3922141001740567e+00 -1.2358287357896409e+00 5.6844481584113673e+00 0 0 0
1061 1 1.2602666480199280e+01 -1.0462567374924969e-02 7.0177538830171038e+00 0 0 0
1024 1 1.3934570266416669e+01 -1.3996693197024288e+00 5.6700289104102692e+00 0 0 0
1066 1 1.6654478691302266e+01 1.4257692675995342e+00 5.9104451151950039e+00 0 0 0
1069 1 1.7993283352054075e+01 -2.1157545513033359e-02 7.1422027803675965e+00 0 0 0
1032 1 1.9345692563804651e+01 -1.4191585498788146e+00 5.9077408213584075e+00 0 0 0
1074 1 2.1867961782530578e+01 1.0902237265121668e+00 5.8009909698833004e+00 0 0 0
1077 1 2.3336059394328039e+01 -3.9355846641854354e-02 7.2485065717655059e+00 0 0 0
1040 1 2.4657632950423586e+01 -1.4937751895283107e+00 5.9166912563267404e+00 0 0 0
1043 1 2.6072880902036701e+01 2.6747702552495687e+00 7.1271848911477136e+00 -1 0 0
1051 1 4.3266536591985698e+00 2.6973193614892583e+00 7.0015066509831962e+00 0 0 0
1048 1 2.8800447515629970e+00 3.9185385984774599e+00 5.6330152240935689e+00 0 0 0
1056 1 8.5939863588498042e+00 3.9731182769447138e+00 5.6869775641035840e+00 0 0 0
1059 1 9.9574162349520261e+00 2.7239774969541206e+00 7.0539393125492689e+00 0 0 0
1058 1 1.1279995775726858e+01 1.2727306550688935e+00 5.6033377925329129e+00 0 0 0
1064 1 1.3811991787583779e+01 4.2667612302252831e+00 5.8901905742623528e+00 0 0 0
1067 1 1.5253617829743709e+01 2.9462098587132930e+00 7.2236984067384977e+00 0 0 0
1072 1 1.9269013365784794e+01 3.9886391910999786e+00 5.8095968483999796e+00 0 0 0
1075 1 2.0617365444429069e+01 2.5623790780671887e+00 7.1113679911446042e+00 0 0 0
1080 1 2.4665517749726561e+01 4.0480418385785155e+00 5.7253695609221067e+00 0 0 0
1082 1 1.8536594038165943e-01 6.7089959323322326e+00 5.7823396313718902e+00 0 0 0
1085 1 1.5492945903754394e+00 5.2217944503595373e+00 7.0448731498582253e+00 0 0 0
1090 1 5.5438788973671720e+00 6.6971874853806765e+00 5.7255055997381001e+00 0 0 0
1093 1 7.0859212460864551e+00 5.3465436380117648e+00 7.0198065107226482e+00 0 0 0
1098 1 1.1137531396413996e+01 6.6374350019868995e+00 5.7442136046528489e+00 0 0 0
1101 1 1.2491949505258058e+01 5.4743972769609144e+00 7.2258505561450201e+00 0 0 0
1106 1 1.6470393976950024e+01 6.6964928822801975e+00 5.8002922167060786e+00 0 0 0
1107 1 1.5250141154885021e+01 8.2579115700453158e+00 7.1760764973213611e+00 0 0 0
1109 1 1.7967534638633833e+01 5.3682846533453512e+00 7.1392947272422864e+00 0 0 0
1114 1 2.1863682104749703e+01 6.7106093917869485e+00 5.7799558426328685e+00 0 0 0
1115 1 2.0595492127424226e+01 8.0980621530730836e+00 7.1166573405666815e+00 0 0 0
1117 1 2.3314048490149421e+01 5.3305922824855303e+00 7.1789900641683975e+00 0 0 0
1083 1 2.6001716072017850e+01 8.0559862823085098e+00 7.0698539100000453e+00 -1 0 0
1125 1 1.6122488468227314e+00 1.0878110562375177e+01 7.0305639297070810e+00 0 0 0
1091 1 4.2275755742559014e+00 8.0177900499938879e+00 7.1540565036240862e+00 0 0 0
1088 1 2.9434135187047383e+00 9.4301253449831250e+00 5.7518622203142442e+00 0 0 0
1133 1 6.9703325156542535e+00 1.0769682396697229e+01 7.0670924763743423e+00 0 0 0
1099 1 9.8889531274908808e+00 7.9281159241533192e+00 7.2042363323178957e+00 0 0 0
1096 1 8.4756168997420271e+00 9.3681730139116333e+00 5.8081093556819265e+00 0 0 0
1141 1 1.2387360178713678e+01 1.0943908815386447e+01 7.2904894529578721e+00 0 0 0
1104 1 1.3806166771402115e+01 9.6032106271583633e+00 5.8739938251555186e+00 0 0 0
1149 1 1.7964337888729457e+01 1.0886224436755418e+01 7.2127779590967922e+00 0 0 0
1112 1 1.9153494603226957e+01 9.5006261791234650e+00 5.7259183235332713e+00 0 0 0
1157 1 2.3441396694332909e+01 1.0701186550892414e+01 7.2198973822938832e+00 0 0 0
1120 1 2.4643996524265901e+01 9.3756097533912914e+00 5.5886051917639916e+00 0 0 0
2007 1 1.6171355776414422e+00 -2.8368861261043357e+00 9.8470665160614157e+00 0 0 0
1006 1 2.9309438716653657e+00 -4.1822420973811392e+00 8.4078269270238799e+00 0 0 0
4100 1 1.1120851759601118e+01 9.5001264656127589e+00 2.4700203752111786e+01 0 0 0
2015 1 7.0438381684709253e+00 -2.5910011303101852e+00 9.7977019282219331e+00 0 0 0
1014 1 8.4572528250368553e+00 -3.9119035617567524e+00 8.4416140947657130e+00 0 0 0
2017 1 9.7097283341176386e+00 -5.4034533584996280e+00 9.7722124366617962e+00 0 0 0
1022 1 1.3825888947638612e+01 -3.9913324516277262e+00 8.4102231085196095e+00 0 0 0
2023 1 1.2428859543512035e+01 -2.7373315764904342e+00 9.8611420231465736e+00 0 0 0
2018 1 1.1228285059314517e+01 -4.1271817164242446e+00 1.1175234663067062e+01 0 0 0
2025 1 1.5218337516859581e+01 -5.3683715101846472e+00 9.8495196405300085e+00 0 0 0
1030 1 1.9153939114080512e+01 -4.3816795709068197e+00 8.4781301985393931e+00 0 0 0
2031 1 1.7806105646691890e+01 -2.8632482089819544e+00 9.7396638158055442e+00 0 0 0
4141 1 1.2583610253063627e+01 1.0817477231824673e+01 2.3452700892763882e+01 0 0 0
1038 1 2.4737118679084499e+01 -4.3138620643686787e+00 8.5571167710361955e+00 0 0 0
2039 1 2.3403620995510611e+01 -2.7457696591235017e+00 9.8250563822629893e+00 0 0 0
1004 1 2.3432894624849279e-01 -1.5174871295504189e+00 8.4322981841237024e+00 0 0 0
1046 1 2.9586728450467858e+00 1.3275030639647174e+00 8.3622571578237448e+00 0 0 0
2049 1 4.3031129436715139e+00 1.0119036098053950e-02 9.8082630230855052e+00 0 0 0
1012 1 5.5743280812820073e+00 -1.3747440691711010e+00 8.4624940124905841e+00 0 0 0
1054 1 8.4900036915905464e+00 1.4501722187681032e+00 8.4017664084826116e+00 0 0 0
2057 1 9.8873801396933629e+00 1.4842907639730116e-01 9.7923490455566071e+00 0 0 0
1020 1 1.1235416490119357e+01 -1.2880742534146397e+00 8.3703686279581682e+00 0 0 0
2058 1 1.1326983366231900e+01 1.3042452081097580e+00 1.1211456897104073e+01 0 0 0
1028 1 1.6585189990085293e+01 -1.3523834311595844e+00 8.4018356685038800e+00 0 0 0
2065 1 1.5307821442150448e+01 -2.5702355308680071e-02 9.7757885055574665e+00 0 0 0
1070 1 1.9208667404793026e+01 1.3820556788592819e+00 8.5865021267577841e+00 0 0 0
1036 1 2.1962721321323382e+01 -1.4746319705103137e+00 8.4662259020831669e+00 0 0 0
2073 1 2.0486306580563877e+01 -1.6877603222462600e-01 9.7899353194834493e+00 0 0 0
2041 1 -9.9084755224027887e-01 -6.6115342693690319e-04 9.8258024308788166e+00 0 0 0
1078 1 2.4756823406508449e+01 1.3322416589090400e+00 8.6040861701719376e+00 0 0 0
1044 1 3.1276806049295836e-01 3.9019659573578620e+00 8.4193272399558339e+00 0 0 0
2047 1 1.7113869642683188e+00 2.6481859157153975e+00 9.8170508408356874e+00 0 0 0
1052 1 5.7890169976124550e+00 4.0290245604699200e+00 8.4022450725224598e+00 0 0 0
2055 1 7.1172082953830671e+00 2.6777842820544961e+00 9.9063392863128747e+00 0 0 0
1062 1 1.3953559699818728e+01 1.3658378970497089e+00 8.4619227644569612e+00 0 0 0
1060 1 1.1208845259882448e+01 4.0216300259133657e+00 8.6366000148836832e+00 0 0 0
2063 1 1.2561713963732904e+01 2.7037505716907688e+00 9.8991011987240629e+00 0 0 0
1068 1 1.6564974053981238e+01 4.1378841832530657e+00 8.5840613573097126e+00 0 0 0
2071 1 1.7829977131159126e+01 2.6479228176981064e+00 1.0011534488133742e+01 0 0 0
1076 1 2.1916086172357502e+01 3.9810708577854013e+00 8.5373392083953910e+00 0 0 0
2079 1 2.3384026528944585e+01 2.6056352287596374e+00 9.8786904578195589e+00 0 0 0
1086 1 2.7760734125229409e+00 6.7576573171936074e+00 8.4719670314613005e+00 0 0 0
2089 1 4.2275609005781014e+00 5.4641310290720435e+00 9.6706594715619154e+00 0 0 0
2095 1 6.9992609097271021e+00 8.1064882553764885e+00 9.7815742905168168e+00 0 0 0
1094 1 8.4297667074693567e+00 6.6302934991368865e+00 8.4651658419230476e+00 0 0 0
2097 1 9.6514361194905600e+00 5.2815132540499512e+00 9.9276645605321523e+00 0 0 0
1102 1 1.3867541316301701e+01 7.0372403944556439e+00 8.6173035296901919e+00 0 0 0
2103 1 1.2322948753590207e+01 8.3153762502172590e+00 9.9627263535342543e+00 0 0 0
2105 1 1.5069275985325383e+01 5.5107986339219117e+00 9.9694592257306844e+00 0 0 0
1110 1 1.9339623804726330e+01 6.6095243516280373e+00 8.4926774906579965e+00 0 0 0
2111 1 1.7924668840417947e+01 7.9492108621491484e+00 9.7510681293442456e+00 0 0 0
2113 1 2.0656730655090755e+01 5.3327794542441191e+00 9.9449419205965324e+00 0 0 0
2081 1 -1.0104173426204746e+00 5.3914351255524133e+00 9.6741146487101748e+00 0 0 0
1118 1 2.4700834535566123e+01 6.6155862662516300e+00 8.3768678424613245e+00 0 0 0
2087 1 1.5788870440304144e+00 8.1895776681991546e+00 9.9184990085606906e+00 0 0 0
1084 1 1.5903252445910782e-01 9.4487223220553869e+00 8.4410345154744277e+00 0 0 0
2121 1 2.6033363622481602e+01 1.0821575137806024e+01 9.7146020669156208e+00 -1 0 0
2129 1 4.3933260440436639e+00 1.0853983725708117e+01 9.8153299245790748e+00 0 0 0
1092 1 5.6298634768748368e+00 9.3703255782119115e+00 8.4317568266515845e+00 0 0 0
2137 1 9.6496795537722662e+00 1.0862440748371712e+01 9.8042576932716372e+00 0 0 0
1100 1 1.1088759666923096e+01 9.5187006148381172e+00 8.4152768925604065e+00 0 0 0
1108 1 1.6514862428688186e+01 9.5358315011789205e+00 8.5415793657749255e+00 0 0 0
2145 1 1.5276038421856411e+01 1.0898280997776705e+01 9.8644999712855022e+00 0 0 0
1116 1 2.2037357986785292e+01 9.3146251289417350e+00 8.4825201680863174e+00 0 0 0
2153 1 2.0801883048013622e+01 1.0769319591068395e+01 9.9214273744327919e+00 0 0 0
2119 1 2.3455830525171898e+01 8.0609277128204315e+00 9.8174240190820132e+00 0 0 0
2120 1 2.4804020928243055e+01 9.4297365442716643e+00 1.1189994379790594e+01 0 0 0
2002 1 2.6444653825420422e-01 -4.1036313501769586e+00 1.1160425865077901e+01 0 0 0
2005 1 1.7548691367048512e+00 -5.4461952927209367e+00 1.2370538208721237e+01 0 0 0
2011 1 4.4109065983186655e+00 -2.9857475430906653e+00 1.2387567507991548e+01 0 0 0
2006 1 3.0230292362325590e+00 -4.1539400897108294e+00 1.3926811074520105e+01 0 0 0
2010 1 5.8140830714275227e+00 -4.2761248217383470e+00 1.1054539985521172e+01 0 0 0
2014 1 8.4339774363089681e+00 -4.1988234170029815e+00 1.3778506211022911e+01 0 0 0
2019 1 9.8445249871114591e+00 -2.7683103169639227e+00 1.2513632385997836e+01 0 0 0
4099 1 9.7468312268239039e+00 7.9915326097711121e+00 2.3434300140492329e+01 0 0 0
2022 1 1.4000681719092766e+01 -4.1540622737003599e+00 1.3777969743491617e+01 0 0 0
2026 1 1.6543463178255710e+01 -4.0664590356565213e+00 1.1120913748480834e+01 0 0 0
2027 1 1.5296411102760409e+01 -2.5989122675254430e+00 1.2524001481693199e+01 0 0 0
4092 1 5.7546002157742766e+00 9.3492314070991327e+00 2.4800133227157723e+01 0 0 0
2030 1 1.9137249985886211e+01 -4.2666878855265660e+00 1.4049982343650209e+01 0 0 0
2034 1 2.1943491253304089e+01 -4.0505987312446994e+00 1.1119177725203727e+01 0 0 0
2035 1 2.0543322325089278e+01 -2.8104645792526863e+00 1.2568175055874478e+01 0 0 0
2003 1 -1.0527413798233880e+00 -2.6977304440661221e+00 1.2492555582403766e+01 0 0 0
2037 1 2.3265197328959950e+01 -5.4316601897617165e+00 1.2511096665074623e+01 0 0 0
2038 1 2.4736671282007922e+01 -4.0267511671417671e+00 1.3825043034137373e+01 0 0 0
2042 1 3.9673107383334866e-01 1.2710583787916612e+00 1.1361277141153149e+01 0 0 0
2004 1 2.6012325050534629e-01 -1.4631336476586052e+00 1.3876296517511701e+01 0 0 0
2045 1 1.7684447046300946e+00 -4.7988387807358986e-02 1.2612441479441035e+01 0 0 0
2008 1 3.0525415530255113e+00 -1.4822798085075382e+00 1.1154422228503870e+01 0 0 0
2050 1 5.6393910266397764e+00 1.3000666495478532e+00 1.1216004322041417e+01 0 0 0
2012 1 5.7021720463480436e+00 -1.4418626203073692e+00 1.3752237632671200e+01 0 0 0
2053 1 7.1042323342753235e+00 -9.8066231799819950e-02 1.2505736656611854e+01 0 0 0
2016 1 8.5509087536878692e+00 -1.3083921757387851e+00 1.1215119226023798e+01 0 0 0
2054 1 8.3688095186807647e+00 1.2614271467627103e+00 1.3893456916237962e+01 0 0 0
2024 1 1.3855335994399853e+01 -1.3253245267040654e+00 1.1100006669848126e+01 0 0 0
2020 1 1.1192359543679533e+01 -1.4585220647337387e+00 1.3871844092450482e+01 0 0 0
2061 1 1.2514596606660646e+01 -2.5405869081162973e-02 1.2602889690254466e+01 0 0 0
2062 1 1.3925236493932392e+01 1.2442602202897641e+00 1.4063104587964247e+01 0 0 0
2066 1 1.6392001159896040e+01 1.1717402760738482e+00 1.1343092693910403e+01 0 0 0
2028 1 1.6723523644119677e+01 -1.4174951324132516e+00 1.3989604876917516e+01 0 0 0
2032 1 1.9186488489673003e+01 -1.5170624908630652e+00 1.1247898302376329e+01 0 0 0
2069 1 1.7905490963739652e+01 -4.8218355619608893e-03 1.2585150907513889e+01 0 0 0
2036 1 2.2072229805105010e+01 -1.5413207584787754e+00 1.3884021003101733e+01 0 0 0
2040 1 2.4714522537782223e+01 -1.3256072038130058e+00 1.1167327459529393e+01 0 0 0
2077 1 2.3329398942616994e+01 -1.0667279893913637e-01 1.2536094442558694e+01 0 0 0
2078 1 2.4867590736096059e+01 1.3415951928433596e+00 1.3702930234998172e+01 0 0 0
2043 1 -9.7071977149017208e-01 2.7108510746707988e+00 1.2427703593577139e+01 0 0 0
2044 1 3.3222448854465192e-01 4.1506268692933883e+00 1.3879704730431440e+01 0 0 0
2046 1 3.0115684372119307e+00 1.2119759286398892e+00 1.4056786645995105e+01 0 0 0
2048 1 2.9070370731150490e+00 4.1101215085827727e+00 1.1158531099846908e+01 0 0 0
2051 1 4.1076316794385583e+00 2.6671165345225543e+00 1.2570696327889888e+01 0 0 0
2052 1 5.6585198337957410e+00 3.9103723322642470e+00 1.3891199459243335e+01 0 0 0
2056 1 8.4532743345017032e+00 3.9512129070044359e+00 1.1246260009363430e+01 0 0 0
2059 1 9.8159204822905242e+00 2.5521362957965930e+00 1.2481297906401291e+01 0 0 0
2064 1 1.3926228156749668e+01 4.0772092893179508e+00 1.1234751650261883e+01 0 0 0
2060 1 1.1091975985852491e+01 3.8748680719790234e+00 1.4029628168788586e+01 0 0 0
2067 1 1.5145641265933854e+01 2.6747294894643825e+00 1.2635257354079036e+01 0 0 0
2068 1 1.6585516403242679e+01 3.9713082741663759e+00 1.4000810610950351e+01 0 0 0
2070 1 1.9322718141216125e+01 1.2657711523756601e+00 1.3947338144533074e+01 0 0 0
2072 1 1.9293106925594287e+01 4.0175255810694859e+00 1.1283638643365485e+01 0 0 0
2074 1 2.1868007099149711e+01 1.2880616781188376e+00 1.1288240018993031e+01 0 0 0
2075 1 2.0668357449522457e+01 2.7601615703042426e+00 1.2632980970983240e+01 0 0 0
2076 1 2.2062870654567611e+01 4.0518065455932932e+00 1.3908745461887587e+01 0 0 0
2080 1 2.4791522949269609e+01 4.0548525150222492e+00 1.1150386517152160e+01 0 0 0
2082 1 2.8971238303656027e-01 6.6914003805657529e+00 1.1211926134117743e+01 0 0 0
2085 1 1.6583667039854841e+00 5.5483130546014126e+00 1.2623908559540361e+01 0 0 0
2086 1 3.0849267924033903e+00 6.9510550542676448e+00 1.3922107471800643e+01 0 0 0
2091 1 4.4169088270434802e+00 8.1382120908349638e+00 1.2533259475555900e+01 0 0 0
2090 1 5.6182477163367981e+00 6.6791264189116015e+00 1.1185171091940855e+01 0 0 0
2093 1 7.0059384595209266e+00 5.2602810354182665e+00 1.2530842472235012e+01 0 0 0
2094 1 8.5394653546499324e+00 6.7284450056014125e+00 1.3882690211658119e+01 0 0 0
2099 1 9.8430700838884864e+00 8.0654403381657325e+00 1.2518433027566520e+01 0 0 0
2098 1 1.1144535143061882e+01 6.6283822483130184e+00 1.1149013068477350e+01 0 0 0
2101 1 1.2481305906543774e+01 5.2295995237953745e+00 1.2628931021397969e+01 0 0 0
2102 1 1.3938679903599839e+01 6.6587325795452399e+00 1.3820265412682689e+01 0 0 0
2106 1 1.6544940207029420e+01 6.7530195454655804e+00 1.1320987641512351e+01 0 0 0
2107 1 1.5319413578476198e+01 8.1513933586483169e+00 1.2591588061568311e+01 0 0 0
2109 1 1.7946907985465163e+01 5.2579872690530802e+00 1.2665981872654003e+01 0 0 0
2110 1 1.9434207752012600e+01 6.5905556358688306e+00 1.3887802073706910e+01 0 0 0
2114 1 2.2075871220932186e+01 6.6769001389332496e+00 1.1201734064934740e+01 0 0 0
2115 1 2.0606754992086504e+01 8.0930568162274312e+00 1.2531631185436078e+01 0 0 0
2083 1 2.6061005104141120e+01 8.0908811887563736e+00 1.2503941654224850e+01 -1 0 0
2117 1 2.3373841981917927e+01 5.3374774139713086e+00 1.2498697635235112e+01 0 0 0
2118 1 2.4687870302570325e+01 6.7284668545986328e+00 1.3885413805343983e+01 0 0 0
2084 1 1.8173564003842177e-01 9.5390952268549309e+00 1.3961428215510557e+01 0 0 0
2125 1 1.6899709510652356e+00 1.0890399348792053e+01 1.2520406598043538e+01 0 0 0
2088 1 3.0690129099741261e+00 9.4995697436157158e+00 1.1300096157230666e+01 0 0 0
2092 1 5.7322930955915812e+00 9.4943199144386661e+00 1.3963133881823211e+01 0 0 0
2133 1 7.1049781850619311e+00 1.0725161801463752e+01 1.2579836519747717e+01 0 0 0
2096 1 8.4232741144939798e+00 9.3387214773752127e+00 1.1135381076751402e+01 0 0 0
2104 1 1.3835975530425053e+01 9.5873914004457887e+00 1.1133493812087448e+01 0 0 0
2100 1 1.1209327448958026e+01 9.4488386417632579e+00 1.3930224887282469e+01 0 0 0
2141 1 1.2631283962921085e+01 1.0824257324606853e+01 1.2662471434415247e+01 0 0 0
2108 1 1.6673299684615571e+01 9.6208977065566952e+00 1.4010832690740882e+01 0 0 0
2112 1 1.9230970248857844e+01 9.4013821674100431e+00 1.1201561422327559e+01 0 0 0
2149 1 1.8073645847923387e+01 1.0886722528637957e+01 1.2655278628449434e+01 0 0 0
2116 1 2.2079030494239760e+01 9.5524658917879162e+00 1.3857756650036750e+01 0 0 0
2157 1 2.3464646913872908e+01 1.0838741123758791e+01 1.2543870585179343e+01 0 0 0
3007 1 1.6285792583971965e+00 -2.7209116215851621e+00 1.5257820973574054e+01 0 0 0
3002 1 1.1599197981408872e-01 -4.1263806092118518e+00 1.6620303768050988e+01 0 0 0