LAMMPS data file via write_data, version 30 Jul 2016, timestep = 2000

1000 atoms
1 atom types

-1.1037168687862149e+00 2.6103716868786151e+01 xlo xhi
-1.1037168687862149e+00 2.6103716868786151e+01 ylo yhi
-1.1037168687862149e+00 2.6103716868786151e+01 zlo zhi

Masses

1 28.0855

Atoms # atomic

2 1 2.7957708007323345e-01 1.6671652219768979e-01 2.2536323043342477e-01 0 0 0
443 1 -1.0891713823483578e+00 7.2521485145625260e+00 1.2295572301539403e+01 0 0 0
7 1 1.6798978287906614e+00 1.6110948815020674e+00 -9.8016208557555240e-01 0 0 0
11 1 4.3632525455415587e+00 1.5375574755764321e+00 1.7252423640885026e+00 0 0 0
10 1 5.7645263544820953e+00 2.5598919908643103e-01 2.5668736596843872e-01 0 0 0
441 1 -1.0289735862022695e+00 4.2382362784726393e+00 9.8342632600768631e+00 0 0 0
423 1 1.2462459130879159e+01 1.6241340161650242e+00 9.7417552795442859e+00 0 0 0
18 1 1.1201882957136345e+01 2.8632590249913636e-01 2.6100091226751249e-01 0 0 0
19 1 9.7500901296760567e+00 1.5650817887466770e+00 1.5689032988075338e+00 0 0 0
45 1 1.5769375576851745e+00 4.2732347946428586e+00 1.6134519798151901e+00 0 0 0
42 1 1.4340331434849568e-01 5.6546345227222927e+00 3.0596577126564867e-01 0 0 0
495 1 7.0909940928231086e+00 1.2471416877988510e+01 9.8249186162452720e+00 0 0 0
8 1 3.0859935493520729e+00 3.0356457711676548e+00 2.7511760344226016e-01 0 0 0
53 1 6.9070266327185106e+00 4.3419332695651391e+00 1.6212821975230238e+00 0 0 0
16 1 8.4516592951404448e+00 3.0324221955139308e+00 2.7898335617171338e-01 0 0 0
58 1 1.1146409180650268e+01 5.6898847854066110e+00 3.0137558664199643e-01 0 0 0
47 1 1.7406447930944053e+00 6.9921429939026307e+00 -9.9126705090968537e-01 0 0 0
50 1 5.7988354191602438e+00 5.8072952870986621e+00 7.7046907582986074e-02 0 0 0
51 1 4.4153837933793199e+00 7.0987592083360642e+00 1.5481743909337211e+00 0 0 0
48 1 2.9182907865400534e+00 8.5765460236990876e+00 3.0898883060310844e-01 0 0 0
487 1 1.5314277730833084e+00 1.2449455437969887e+01 9.7325581631415243e+00 0 0 0
56 1 8.5572093176149249e+00 8.4504070010002632e+00 2.8026634113984489e-01 0 0 0
59 1 9.7274729213577587e+00 6.9858895526582652e+00 1.7042329894949444e+00 0 0 0
82 1 8.9443582370756683e-02 1.1070697104502443e+01 3.4857349945979343e-01 0 0 0
85 1 1.4608572491608420e+00 9.8133027135931332e+00 1.7211078673540354e+00 0 0 0
497 1 9.6907462951074841e+00 9.6400759627043158e+00 9.8209998022063356e+00 0 0 0
89 1 4.3342797267277513e+00 9.8894991644550512e+00 -9.8756678511091978e-01 0 0 0
90 1 5.7099226874791098e+00 1.1244262983769072e+01 3.5274309060809367e-01 0 0 0
93 1 6.9892733085356724e+00 9.7526636384260623e+00 1.5527373038611425e+00 0 0 0
209 1 4.2127059060583978e+00 -1.0732610808019807e+00 4.3188743126414879e+00 0 0 0
98 1 1.1204425952521184e+01 1.1101751468850072e+01 2.0232592369052604e-01 0 0 0
207 1 1.4575258716311821e+00 1.5929673814383889e+00 4.2612694135919833e+00 0 0 0
202 1 2.8962865736312438e-01 2.2120164559986111e-01 5.8435588250615735e+00 0 0 0
6 1 2.8202870755992375e+00 2.6250500558064699e-01 2.9307054940163173e+00 0 0 0
14 1 8.3170905399738970e+00 2.7030589059253463e-01 3.1231438405523049e+00 0 0 0
215 1 6.9439645676948363e+00 1.5555984395500693e+00 4.4356678608181026e+00 0 0 0
301 1 1.2493076357047364e+01 9.9044634228701831e+00 7.1516218462780916e+00 0 0 0
498 1 1.1179030957707768e+01 1.1041295742345607e+01 1.1039011367808316e+01 0 0 0
4 1 2.1084803364516658e-01 2.9781484085566072e+00 2.8829509109045923e+00 0 0 0
249 1 4.2315703232843846e+00 4.2406853732839158e+00 4.2356009105884294e+00 0 0 0
12 1 5.5111486363640703e+00 2.8386423027976830e+00 3.1494578414400585e+00 0 0 0
208 1 2.8531571538057090e+00 2.9183095431745136e+00 5.5811522558423210e+00 0 0 0
257 1 9.7224914129074236e+00 4.3251090282965556e+00 4.3764677971759696e+00 0 0 0
20 1 1.1010485602056329e+01 2.9490230612515940e+00 3.0781560493657887e+00 0 0 0
44 1 1.3447319510835529e-01 8.2431382700207756e+00 2.9142642295190191e+00 0 0 0
247 1 1.6470127267826538e+00 6.9552854827167172e+00 4.3376261466896295e+00 0 0 0
46 1 2.9371574740609558e+00 5.6840690110577841e+00 2.8566913620732617e+00 0 0 0
52 1 5.7385298174626378e+00 8.3971981720334092e+00 2.9606595807617078e+00 0 0 0
54 1 8.3853397854165994e+00 5.5305623265201662e+00 3.0104474993179604e+00 0 0 0
255 1 7.0259026613705533e+00 6.8484191197563167e+00 4.2732957714890061e+00 0 0 0
60 1 1.1160786209942847e+01 8.4227251013550379e+00 3.0264133821965942e+00 0 0 0
282 1 1.9219244687854026e-01 1.1033415952673936e+01 5.6947699171061288e+00 0 0 0
289 1 4.3322402620828324e+00 9.8559790846721196e+00 4.2187832245189512e+00 0 0 0
86 1 2.8019068404013692e+00 1.1156410410521705e+01 3.0042930484935542e+00 0 0 0
94 1 8.4122518089474116e+00 1.1024464000772172e+01 2.9548860220243975e+00 0 0 0
261 1 1.2472853435285115e+01 4.3498355753653630e+00 7.0371094949617081e+00 0 0 0
297 1 9.8549611353664002e+00 9.7631642113838151e+00 4.2897244303220798e+00 0 0 0
203 1 -1.0429655869583894e+00 1.7220323152975245e+00 7.1709302838619271e+00 0 0 0
287 1 1.5796768267502217e+00 1.2465072126184996e+01 4.4316378807326693e+00 0 0 0
210 1 5.6615256488924874e+00 1.8647986723620241e-01 5.8045895681170352e+00 0 0 0
211 1 4.2195078237172918e+00 1.6007104697936196e+00 7.0189941086278784e+00 0 0 0
206 1 3.0144538889025001e+00 5.4584567262006556e-02 8.3531424984367302e+00 0 0 0
214 1 8.3413384035356994e+00 3.5731422009294128e-01 8.2640080474046584e+00 0 0 0
218 1 1.1189841663001467e+01 1.9200678958378348e-01 5.7123330088240030e+00 0 0 0
219 1 9.8078818302921054e+00 1.5403042550168418e+00 6.9517583665926477e+00 0 0 0
499 1 9.8583396600115982e+00 1.2445812402768631e+01 1.2423652455769215e+01 0 0 0
204 1 3.6355030786730841e-01 3.0174379666368072e+00 8.3843504778797620e+00 0 0 0
245 1 1.6434773513775538e+00 4.3360914150396823e+00 6.9738359524372244e+00 0 0 0
216 1 8.3569409014136262e+00 2.9456013421143745e+00 5.6990698380397626e+00 0 0 0
212 1 5.6365850469330310e+00 2.9983375798208560e+00 8.3925694024093271e+00 0 0 0
253 1 6.9347274787670283e+00 4.2975769896785430e+00 7.0874419509852400e+00 0 0 0
220 1 1.1167192048451207e+01 2.9067718752362324e+00 8.3901189890813015e+00 0 0 0
242 1 2.2480279369500936e-01 5.6794368059698872e+00 5.6842102396041634e+00 0 0 0
490 1 5.5979449878240954e+00 1.1232361960193103e+01 1.1173140242368342e+01 0 0 0
244 1 2.3275405589152362e-01 8.4819124483572104e+00 8.2648226286196671e+00 0 0 0
250 1 5.5192585399541594e+00 5.6349001215328638e+00 5.6820817188239445e+00 0 0 0
248 1 3.1280118316709746e+00 8.3610766480306165e+00 5.5505924601386907e+00 0 0 0
246 1 2.8704802966012397e+00 5.8306125425864721e+00 8.2957017525435894e+00 0 0 0
251 1 4.3463909632363524e+00 7.1557126400417301e+00 7.0283385272077856e+00 0 0 0
256 1 8.3301552075956309e+00 8.4596451098868890e+00 5.5683964203997753e+00 0 0 0
254 1 8.3341560030539856e+00 5.7994703373041583e+00 8.3730405876527190e+00 0 0 0
252 1 5.7681087264904916e+00 8.6006615352335700e+00 8.3979285237322792e+00 0 0 0
258 1 1.1068289941818326e+01 5.7315112522563130e+00 5.7322508564932342e+00 0 0 0
259 1 9.7456771143336134e+00 7.1400200864414698e+00 6.9211029215640991e+00 0 0 0
260 1 1.1230195475304606e+01 8.3819400746005517e+00 8.4701483165890519e+00 0 0 0
285 1 1.6534526254685704e+00 9.7115022885207747e+00 6.9598742404009215e+00 0 0 0
286 1 2.9790608110520487e+00 1.0878653351674989e+01 8.4633475272378682e+00 0 0 0
290 1 5.6763056635062048e+00 1.1154596920773828e+01 5.7577332491940458e+00 0 0 0
293 1 7.1664521766429035e+00 9.8852527282115901e+00 6.9796680944395275e+00 0 0 0
294 1 8.3762721302533460e+00 1.1172613822397269e+01 8.4565453956823671e+00 0 0 0
298 1 1.1132985039980559e+01 1.1188329089894214e+01 5.6682648261995610e+00 0 0 0
99 1 9.8204194581358877e+00 1.2440156609452840e+01 1.5723063355164997e+00 0 0 0
407 1 1.7248021550111559e+00 1.5453319087391508e+00 9.7680162412583531e+00 0 0 0
402 1 2.9223203092819766e-01 2.2040674149500961e-01 1.1029355092131365e+01 0 0 0
410 1 5.6131848444631975e+00 3.0664263455588558e-01 1.1035077366279765e+01 0 0 0
481 1 -1.0020947006969863e+00 9.7479806058926659e+00 9.8349078980167555e+00 0 0 0
415 1 7.0826034420391446e+00 1.5838669150897875e+00 9.7040782567013437e+00 0 0 0
419 1 9.7718516064923566e+00 1.6487466165991240e+00 1.2485118196936401e+01 0 0 0
418 1 1.1127151539034756e+01 2.4932560357840566e-01 1.1131787995508882e+01 0 0 0
445 1 1.6004223776983197e+00 4.3203032784103188e+00 1.2452972170586643e+01 0 0 0
442 1 2.0602629826201388e-01 5.6658720104019045e+00 1.1221007030019207e+01 0 0 0
408 1 2.8699668162320475e+00 3.0277638784224785e+00 1.1144651498958734e+01 0 0 0
449 1 4.2618503949476345e+00 4.3661562206936768e+00 9.7566666807003148e+00 0 0 0
416 1 8.4263970826157504e+00 2.9823083405207145e+00 1.1059563168945401e+01 0 0 0
458 1 1.1165062380655051e+01 5.6176957585022924e+00 1.1153433024068770e+01 0 0 0
457 1 9.8179589490064600e+00 4.3542919962835862e+00 9.6577018173609428e+00 0 0 0
447 1 1.3896060738298166e+00 7.0576811604191629e+00 9.6007483665403779e+00 0 0 0
448 1 2.9931420282414223e+00 8.2854697803737736e+00 1.1009564982625360e+01 0 0 0
450 1 5.5754795665420414e+00 5.7716578255944908e+00 1.1180644605453677e+01 0 0 0
456 1 8.2173829140162287e+00 8.5401233618014540e+00 1.1262053608734192e+01 0 0 0
455 1 7.0701737694684894e+00 7.0518282398990504e+00 9.7913263066515714e+00 0 0 0
459 1 9.7867157725452909e+00 7.0913761702445770e+00 1.2477126425091633e+01 0 0 0
463 1 1.2479019739882567e+01 6.8522003140607870e+00 9.6648689914496781e+00 0 0 0
485 1 1.7146104283507586e+00 9.7122087306469886e+00 1.2438619696303540e+01 0 0 0
482 1 2.8018497772102707e-01 1.1273661739486691e+01 1.1168382465486228e+01 0 0 0
489 1 4.3727356955334695e+00 9.7762539876885537e+00 9.8294186908351779e+00 0 0 0
417 1 9.7051301131527108e+00 -9.7824090893492510e-01 9.7874854265364171e+00 0 0 0
23 1 1.2498909679748770e+01 1.6372981540201954e+00 -1.0645220597377874e+00 0 0 0
61 1 1.2419248189924346e+01 4.2376114471480273e+00 1.6803746940777677e+00 0 0 0
453 1 7.0224058935424853e+00 4.3629090929644008e+00 1.2430567721337990e+01 0 0 0
57 1 9.7957465979014255e+00 4.4444856165811037e+00 -1.0346517230883840e+00 0 0 0
87 1 1.6034931422048921e+00 1.2455199706407914e+01 -8.8400131674895022e-01 0 0 0
95 1 7.0734544356945088e+00 1.2381708240149335e+01 -1.0936566986637679e+00 0 0 0
607 1 1.5640617297787267e+00 1.7542190819784074e+00 1.5259805925136318e+01 0 0 0
405 1 1.6975912452818391e+00 -1.0573124382724326e+00 1.2546635601172593e+01 0 0 0
406 1 3.1289853734401856e+00 2.9650354853897842e-01 1.3936960496711926e+01 0 0 0
411 1 4.3204392716816580e+00 1.7196169883236563e+00 1.2520677981464324e+01 0 0 0
414 1 8.3585510066684954e+00 2.8776027944023003e-01 1.3871149794331625e+01 0 0 0
615 1 7.1417683427036005e+00 1.7047164911302495e+00 1.5173634545701198e+01 0 0 0
413 1 6.9014762636889042e+00 -9.4641442084165728e-01 1.2511760330680998e+01 0 0 0
617 1 9.7293112281695251e+00 -1.0241283526214384e+00 1.5178944016865216e+01 0 0 0
641 1 -1.0731480882380078e+00 4.2604434936775402e+00 1.4935201721698391e+01 0 0 0
404 1 4.1791337542018769e-01 2.9616083862763500e+00 1.3675594132299995e+01 0 0 0
649 1 4.2834517707385995e+00 4.4685034512943949e+00 1.5219042776440963e+01 0 0 0
412 1 5.6790686219826965e+00 3.1231973604805812e+00 1.3900382367335418e+01 0 0 0
446 1 2.8673348082872354e+00 5.7114009379461663e+00 1.3900904354992385e+01 0 0 0
9 1 4.3957454779827305e+00 -1.0664115935143776e+00 2.6098528654368330e+01 0 0 -1
657 1 9.7957113143347403e+00 4.3676492583385498e+00 1.5295026357577822e+01 0 0 0
420 1 1.1193887221590344e+01 2.9449820465534691e+00 1.3890223096233189e+01 0 0 0
444 1 2.7324815276724479e-01 8.5291296429590204e+00 1.3766033555980851e+01 0 0 0
647 1 1.5730847873772091e+00 7.2061822170225636e+00 1.5147162463481747e+01 0 0 0
452 1 5.7695038961602698e+00 8.3700487595179585e+00 1.3934799901776419e+01 0 0 0
451 1 4.2076760009362140e+00 7.0566832011558773e+00 1.2520635683997618e+01 0 0 0
454 1 8.3446545419531652e+00 5.5974693828678221e+00 1.3948639302894909e+01 0 0 0
655 1 7.1485596179331905e+00 7.0881841132283405e+00 1.5261153441356820e+01 0 0 0
460 1 1.1091524867485854e+01 8.3886450846578455e+00 1.3856713400567511e+01 0 0 0
893 1 6.9805794350210251e+00 9.7403741550431491e+00 2.3492676801888884e+01 0 0 0
861 1 1.2413298731664867e+01 4.2451749365694198e+00 2.3486532067149088e+01 0 0 0
689 1 4.3249596348209067e+00 9.7932243833116246e+00 1.5217668083687951e+01 0 0 0
486 1 2.9399261471821272e+00 1.1145697555013333e+01 1.3928193728468308e+01 0 0 0
803 1 -1.0851506065796706e+00 1.6548501527137163e+00 2.3486583031617194e+01 0 0 0
863 1 1.2463832581153426e+01 7.0356168871781914e+00 2.0678868348439007e+01 0 0 0
494 1 8.4791143262297446e+00 1.1105969003411310e+01 1.3820286476524389e+01 0 0 0
697 1 9.8619054140003115e+00 9.7828224672050030e+00 1.5233902139822385e+01 0 0 0
602 1 1.4549352390816822e-01 2.7701665922642210e-01 1.6451270285335418e+01 0 0 0
611 1 4.3643560880385799e+00 1.6278137520596430e+00 1.7999741798949341e+01 0 0 0
610 1 5.6751846415873013e+00 4.6045490832763958e-01 1.6468514257941361e+01 0 0 0
606 1 2.9460598145592440e+00 3.0155226523754780e-01 1.9289099491676993e+01 0 0 0
614 1 8.4195218847033040e+00 3.1721495463230759e-01 1.9373130687595637e+01 0 0 0
618 1 1.1079667605460045e+01 3.0021280952645857e-01 1.6642166642906528e+01 0 0 0
619 1 9.7728073874254608e+00 1.5717620937955619e+00 1.7855225131868156e+01 0 0 0
645 1 1.6139417009764532e+00 4.3709964444001654e+00 1.7955748194612500e+01 0 0 0
642 1 2.0536695070280789e-01 5.7526698970819927e+00 1.6506168850054863e+01 0 0 0
608 1 3.0081474559435253e+00 3.1007215384402969e+00 1.6557225631681067e+01 0 0 0
650 1 5.6892721568239573e+00 5.8819943624216959e+00 1.6468085926009387e+01 0 0 0
653 1 6.9505724277278640e+00 4.4851017694300577e+00 1.7822943127998546e+01 0 0 0
616 1 8.4397422162857794e+00 3.0960101188912943e+00 1.6615840725624558e+01 0 0 0
612 1 5.7224690281897859e+00 2.9878640345761309e+00 1.9280209184197211e+01 0 0 0
658 1 1.1362707679199932e+01 5.8464598705772888e+00 1.6555779732871994e+01 0 0 0
894 1 8.4869545292458994e+00 1.1063837967512583e+01 2.4736525745055694e+01 0 0 0
643 1 -1.0999480003265918e+00 7.0220976195988296e+00 1.7995851275635513e+01 0 0 0
651 1 4.3975643101587920e+00 7.0781201965574203e+00 1.7956986837777290e+01 0 0 0
648 1 2.9460567612931601e+00 8.4181897996425974e+00 1.6620467687585233e+01 0 0 0
656 1 8.5312963393793666e+00 8.3381733003331675e+00 1.6523452648352954e+01 0 0 0
659 1 9.8375026756902351e+00 7.1157212578056637e+00 1.7909036014919259e+01 0 0 0
682 1 3.4024441670603894e-01 1.1144988535501637e+01 1.6430313888029101e+01 0 0 0
685 1 1.5200331527426010e+00 9.7694974086990527e+00 1.7965983248490858e+01 0 0 0
690 1 5.7301831507691201e+00 1.1093857862922738e+01 1.6463003530957256e+01 0 0 0
693 1 7.1636836806916673e+00 9.7686720625315182e+00 1.7829568822078908e+01 0 0 0
683 1 -1.0420643579306983e+00 1.2452032697101002e+01 1.7899777450094874e+01 0 0 0
698 1 1.1202572155983923e+01 1.1304941011434629e+01 1.6498213127764135e+01 0 0 0
701 1 1.2387062596057543e+01 9.9620350171236058e+00 1.8050445234831312e+01 0 0 0
802 1 2.2711520128572885e-01 4.5986015189360668e-01 2.1952258204031832e+01 0 0 0
807 1 1.6869840767392124e+00 1.7111434762476176e+00 2.0726028089942698e+01 0 0 0
810 1 5.6660215086827010e+00 2.9168024699872003e-01 2.1979818857975474e+01 0 0 0
815 1 7.0772265743668070e+00 1.7359745198432384e+00 2.0729565381895789e+01 0 0 0
817 1 9.7939485749637356e+00 -1.0058135064627169e+00 2.0717287809086908e+01 0 0 0
818 1 1.1267819296094864e+01 3.2698524693777892e-01 2.1992680325547823e+01 0 0 0
841 1 -1.0175253585557924e+00 4.2454306117153715e+00 2.0701412530035952e+01 0 0 0
604 1 3.3095299821096680e-01 2.9232142578908955e+00 1.9226911739830747e+01 0 0 0
842 1 3.9515690922396007e-01 5.4070014694206670e+00 2.2133358509170829e+01 0 0 0
849 1 4.4240980097894864e+00 4.4114370714347801e+00 2.0645755549264088e+01 0 0 0
808 1 3.0323698645943766e+00 3.1167825075131090e+00 2.2034116631796572e+01 0 0 0
646 1 3.0376459957865118e+00 5.6076093086740082e+00 1.9234292457566990e+01 0 0 0
816 1 8.4284080233965835e+00 3.0129306847111397e+00 2.2027782527891635e+01 0 0 0
654 1 8.4252859750237459e+00 5.7046619337112086e+00 1.9232822407629808e+01 0 0 0
857 1 9.7057043272739101e+00 4.3556063289936118e+00 2.0609483351051914e+01 0 0 0
620 1 1.1064012057669668e+01 2.9014188586854854e+00 1.9282507344042113e+01 0 0 0
858 1 1.1051873731701336e+01 5.6126311414577197e+00 2.1960341246178508e+01 0 0 0
644 1 2.9438539736174363e-01 8.3701722832166006e+00 1.9343316140516279e+01 0 0 0
847 1 1.6738827104794149e+00 6.9101320644331805e+00 2.0700980688744892e+01 0 0 0
848 1 2.9314323542541416e+00 8.4320002545819683e+00 2.1946701070683414e+01 0 0 0
652 1 5.8174708547886667e+00 8.5163048324408646e+00 1.9189250475564666e+01 0 0 0
850 1 5.7000006891688697e+00 5.8019389380272575e+00 2.2041047720707986e+01 0 0 0
855 1 7.0596537399761559e+00 7.0487614081016785e+00 2.0506566611300325e+01 0 0 0
856 1 8.2880009703429849e+00 8.3880765665187997e+00 2.1958623354861864e+01 0 0 0
660 1 1.1077657396021323e+01 8.4867600123249574e+00 1.9229254919351131e+01 0 0 0
881 1 -9.4879656992238437e-01 9.7276824598417946e+00 2.0765610751984390e+01 0 0 0
882 1 2.7324693547031992e-01 1.1230704220903114e+01 2.1975250635362265e+01 0 0 0
889 1 4.3059018732901455e+00 9.7800097679916185e+00 2.0502407548643198e+01 0 0 0
686 1 2.9247122291513437e+00 1.1130535319030349e+01 1.9226935432282996e+01 0 0 0
890 1 5.5633307561794680e+00 1.1068834791449991e+01 2.2035262522353548e+01 0 0 0
895 1 7.0569999666375258e+00 1.2402228517835429e+01 2.0562322282517403e+01 0 0 0
694 1 8.4280459168430468e+00 1.1112704613196840e+01 1.9346666516714375e+01 0 0 0
681 1 -1.0973005149122272e+00 9.7243909281589040e+00 1.5169517980147715e+01 0 0 0
897 1 9.7445903907214806e+00 9.7729538350180434e+00 2.0731619427629369e+01 0 0 0
898 1 1.1180742836758014e+01 1.1024760855286068e+01 2.2104694446566235e+01 0 0 0
811 1 4.3108152816023875e+00 1.6470819919648871e+00 2.3266199624829131e+01 0 0 0
806 1 3.0341840618009015e+00 3.3262212797173873e-01 2.4693729951882631e+01 0 0 0
814 1 8.4513928370741969e+00 1.4781198306964682e-01 2.4747679043505627e+01 0 0 0
15 1 7.1687890736283508e+00 1.5848762030886059e+00 2.6077961201757212e+01 0 0 -1
819 1 9.8167425567344875e+00 1.6469041325871250e+00 2.3327752437854308e+01 0 0 0
845 1 1.7814056966508989e+00 4.1974144890122664e+00 2.3571280655849709e+01 0 0 0
804 1 3.8708608694102087e-01 2.9511960991215647e+00 2.4849076830246883e+01 0 0 0
891 1 4.2404339145766370e+00 1.2485865047090728e+01 2.3570443886908080e+01 0 0 0
846 1 3.0354176315373458e+00 5.6448840570670828e+00 2.4786603946963371e+01 0 0 0
812 1 5.8274830711483636e+00 2.9125490877305604e+00 2.4717508194494201e+01 0 0 0
854 1 8.4802230767979481e+00 5.7779195275917035e+00 2.4644632029801667e+01 0 0 0
853 1 7.1404926398574222e+00 4.4305548038514742e+00 2.3325844201133076e+01 0 0 0
820 1 1.1078722304301328e+01 3.0719440596598102e+00 2.4804241811225289e+01 0 0 0
103 1 1.2470458754545453e+01 1.2481327617022989e+01 2.5937964523873948e+01 0 0 -1
844 1 2.2632163479663941e-01 8.2846045496065521e+00 2.4796684682598801e+01 0 0 0
886 1 2.8701654639590721e+00 1.1035464025678612e+01 2.4773846124194023e+01 0 0 0
851 1 4.3673294524659765e+00 7.0649556893902918e+00 2.3388548303148678e+01 0 0 0
852 1 5.6430826399235325e+00 8.5022609256012363e+00 2.4790849146250686e+01 0 0 0
860 1 1.1283455112744198e+01 8.4226563087955011e+00 2.4678631600574025e+01 0 0 0
859 1 9.8224093335426303e+00 7.1982959548105807e+00 2.3279239799187529e+01 0 0 0
885 1 1.5471652706835874e+00 9.7231181651400433e+00 2.3394825843861444e+01 0 0 0
809 1 4.2895276469381427e+00 -1.0545789075771239e+00 2.0673543174418867e+01 0 0 0
461 1 1.2476471601054850e+01 4.3556218378324507e+00 1.2502765394307874e+01 0 0 0
691 1 4.3185882320558919e+00 1.2430067211400766e+01 1.7843675294298048e+01 0 0 0
813 1 6.9888821501119667e+00 -1.0953384556458410e+00 2.3431868577709327e+01 0 0 0
605 1 1.6421137761385813e+00 -9.5241912402262230e-01 1.7908248392906920e+01 0 0 0
613 1 7.0608139412483411e+00 -9.0233140232661668e-01 1.7854195486062913e+01 0 0 0
49 1 4.4657646813102412e+00 4.3093074386220387e+00 2.6078828117251973e+01 0 0 -1
55 1 7.2394891335193874e+00 7.2011965572808556e+00 2.6062107265595689e+01 0 0 -1
97 1 9.8314454151453887e+00 9.6223359710435528e+00 2.6012863074319135e+01 0 0 -1
63 1 1.2457737498997471e+01 6.9712620034935666e+00 2.6056245200872635e+01 0 0 -1
403 1 -9.8503160793339095e-01 1.5057863536811080e+00 1.2508556707620670e+01 0 0 0
493 1 6.8893866323954915e+00 9.9575291453747070e+00 1.2620066256353416e+01 0 0 0
121 1 -1.0004051437868118e+00 1.5172475134629401e+01 -9.6542329573689634e-01 0 0 0
125 1 1.5195825928387958e+00 1.5194870287735750e+01 1.6399379760497523e+00 0 0 0
409 1 4.4367777677167206e+00 2.5952364274566467e+01 9.7336664253807257e+00 0 -1 0
88 1 2.9883437981292085e+00 1.3981478588243247e+01 3.7161771221289991e-01 0 0 0
91 1 4.3516648948935011e+00 1.2573903079118855e+01 1.6313959050777291e+00 0 0 0
133 1 7.1491466576167513e+00 1.5155859876015898e+01 1.5672455289441056e+00 0 0 0
96 1 8.4465312981904397e+00 1.3797817553883768e+01 1.0811973187023886e-01 0 0 0
205 1 1.6046997063785529e+00 2.5941970402236759e+01 6.9200845528408257e+00 0 -1 0
561 1 -1.0538051389326313e+00 2.0623269052252752e+01 9.8261871082331051e+00 0 0 0
521 1 -1.0413981320507624e+00 1.5263443157933807e+01 9.8024233180010292e+00 0 0 0
122 1 3.5975003496282210e-01 1.6575747796179130e+01 2.6765632678705431e-01 0 0 0
295 1 6.9687399806837282e+00 1.2525058532649428e+01 4.3571468612799498e+00 0 0 0
131 1 4.2892069854285921e+00 1.7933999708688219e+01 1.5074729665332758e+00 0 0 0
130 1 5.7785452813201994e+00 1.6582347817117245e+01 2.9491867023589152e-01 0 0 0
135 1 7.0949374655459039e+00 1.8089942956761014e+01 -1.0940468986380130e+00 0 0 0
138 1 1.1001239906187188e+01 1.6525019141134869e+01 2.4781384602622405e-01 0 0 0
139 1 9.7827833282581480e+00 1.7955150299923446e+01 1.6676847652643711e+00 0 0 0
162 1 2.5801939355958886e-01 2.2034622356004817e+01 8.6666489645044864e-02 0 0 0
165 1 1.6027581297832540e+00 2.0689645145480391e+01 1.5171452926692188e+00 0 0 0
169 1 4.4031654848954416e+00 2.0522433387373113e+01 -1.0973655282631174e+00 0 0 0
128 1 3.0473829004268840e+00 1.9242361832295362e+01 1.4512719528471829e-01 0 0 0
170 1 5.7010484530287142e+00 2.1919701391524928e+01 2.8740922566014776e-01 0 0 0
173 1 7.1106745942441067e+00 2.0701707805296376e+01 1.8581081736687324e+00 0 0 0
136 1 8.3875177180388185e+00 1.9460338020614099e+01 4.4483414200272059e-01 0 0 0
178 1 1.0953189028037150e+01 2.2180836373914314e+01 2.0027046867409792e-01 0 0 0
181 1 1.2355212165931105e+01 2.0766744113405259e+01 1.5595929500020760e+00 0 0 0
163 1 -1.0543957890438582e+00 2.3262405935645322e+01 1.6329092509360366e+00 0 0 0
167 1 1.6243774916143583e+00 2.3431439153035086e+01 -1.1012127022495239e+00 0 0 0
171 1 4.4303337827636629e+00 2.3387611646324263e+01 1.6011587890847956e+00 0 0 0
168 1 3.0206327413297784e+00 2.4703994366992294e+01 2.6760480533641229e-01 0 0 0
217 1 9.8458711950529345e+00 2.6013251714663873e+01 4.3889578449595001e+00 0 -1 0
176 1 8.5274870441068060e+00 2.4729569662447368e+01 2.3439636995845159e-01 0 0 0
179 1 9.7160129415820808e+00 2.3442435845634716e+01 1.6607581633122737e+00 0 0 0
84 1 2.4002362287475573e-01 1.3810597378687438e+01 2.9839500617475041e+00 0 0 0
13 1 7.1677611939717378e+00 2.5995518359207871e+01 1.5666336972121517e+00 0 -1 0
329 1 4.4192526116090534e+00 1.5160996477002399e+01 4.2500968398780232e+00 0 0 0
288 1 2.9309934882642827e+00 1.3925121829242183e+01 5.6811348884488515e+00 0 0 0
92 1 5.6782296537107886e+00 1.3893681460974543e+01 2.9153181064612834e+00 0 0 0
337 1 9.8837665975760771e+00 1.5116908561424468e+01 4.3347648767759326e+00 0 0 0
100 1 1.1148344915040587e+01 1.3811479984356813e+01 2.9110615590482429e+00 0 0 0
576 1 8.2941746339170557e+00 2.4867929494816757e+01 1.1139513212706554e+01 0 0 0
327 1 1.5237925513899426e+00 1.7837853504175719e+01 4.4781594638619291e+00 0 0 0
126 1 2.9432047614282602e+00 1.6565650016051620e+01 2.9884898743572519e+00 0 0 0
134 1 8.5063223870714513e+00 1.6417126382908073e+01 2.9617603126412400e+00 0 0 0
335 1 7.0767705515906263e+00 1.7832898385195854e+01 4.3128070271314343e+00 0 0 0
338 1 1.1202013507063244e+01 1.6472294463443099e+01 5.7056194595402632e+00 0 0 0
140 1 1.1114757837994858e+01 1.9280997609821625e+01 3.0608921421723658e+00 0 0 0
124 1 3.2020754237283267e-01 1.9336299353648894e+01 3.0963950991504881e+00 0 0 0
369 1 4.2508882542847495e+00 2.0624883729887348e+01 4.3475383564487604e+00 0 0 0
166 1 2.9198723959627806e+00 2.2177947319888968e+01 2.8934621616535980e+00 0 0 0
328 1 2.9163552803050647e+00 1.9209128697458919e+01 5.7495000627381732e+00 0 0 0
132 1 5.6103094948264385e+00 1.9199209808034574e+01 3.0978119214006221e+00 0 0 0
174 1 8.3919862911995793e+00 2.2189211856220656e+01 3.1058830075567165e+00 0 0 0
377 1 9.7378581058267688e+00 2.0619646885312825e+01 4.3262867641947320e+00 0 0 0
164 1 5.3795844407248619e-02 2.4765421392890136e+01 2.9752193658958093e+00 0 0 0
367 1 1.5593018611170197e+00 2.3402575624202825e+01 4.2453111609375132e+00 0 0 0
575 1 7.1319315378627453e+00 2.3304381190050652e+01 9.8430600166396864e+00 0 0 0
368 1 3.0078917162102146e+00 2.4652396617027662e+01 5.5518335994417773e+00 0 0 0
401 1 -1.0825253111037654e+00 2.6102995985992511e+01 9.6717435416112583e+00 0 -1 0
172 1 5.6356135110908072e+00 2.4795749591321652e+01 2.9872066581051056e+00 0 0 0
375 1 6.9491645747188846e+00 2.3462353670492217e+01 4.3942984005809356e+00 0 0 0
376 1 8.4272866438371672e+00 2.4668453917719940e+01 5.6469471456043356e+00 0 0 0
383 1 1.2283520718705564e+01 2.3260450870250953e+01 4.2938708563166923e+00 0 0 0
180 1 1.1071812869608122e+01 2.4713940730775203e+01 2.9373690692032386e+00 0 0 0
284 1 1.1430340791990105e-01 1.3786243875340622e+01 8.3663714406159180e+00 0 0 0
325 1 1.5797719718615140e+00 1.5175019401880290e+01 7.0832806939329211e+00 0 0 0
291 1 4.3137118510669623e+00 1.2541983523584937e+01 7.2126392519630258e+00 0 0 0
292 1 5.6635273527156320e+00 1.3754713739777491e+01 8.5571674345833149e+00 0 0 0
296 1 8.4330046061627613e+00 1.3822827411631284e+01 5.6609021043537711e+00 0 0 0
333 1 6.8932436272834350e+00 1.5107617011070909e+01 7.0305080389839416e+00 0 0 0
299 1 9.8245123628893012e+00 1.2555108805354081e+01 7.1453205972617839e+00 0 0 0
568 1 3.0647431054475747e+00 2.4677649415789208e+01 1.1063711959197992e+01 0 0 0
300 1 1.1222185593252812e+01 1.3905008739069345e+01 8.5716561961949687e+00 0 0 0
322 1 2.0253380314751862e-01 1.6442649936374441e+01 5.8159191608398215e+00 0 0 0
567 1 1.6490074936046453e+00 2.3459580909785679e+01 9.7249204748018094e+00 0 0 0
331 1 4.4514942402088913e+00 1.7898623262261069e+01 7.0454279410981577e+00 0 0 0
326 1 3.0255734301891728e+00 1.6653286442840496e+01 8.3756552983818136e+00 0 0 0
330 1 5.6311701963669272e+00 1.6431020555728281e+01 5.6927201951916233e+00 0 0 0
334 1 8.3620597903841052e+00 1.6441265657572202e+01 8.2854427866355707e+00 0 0 0
332 1 5.8357305752150346e+00 1.9291542826848058e+01 8.3476699109180004e+00 0 0 0
339 1 9.7375314809174487e+00 1.7844961111604110e+01 7.0256417277940919e+00 0 0 0
362 1 1.7357618985382528e-01 2.2117007797268482e+01 5.7343698167362582e+00 0 0 0
324 1 3.3996468251779666e-01 1.9243368665905013e+01 8.4071870991585662e+00 0 0 0
365 1 1.5415781073775188e+00 2.0600811451566891e+01 7.0818877915182021e+00 0 0 0
370 1 5.6916715879975861e+00 2.2057520736219811e+01 5.7645301975869252e+00 0 0 0
366 1 2.9891183957035685e+00 2.2047170018079495e+01 8.3497167423955876e+00 0 0 0
336 1 8.4878628119595891e+00 1.9201320432527822e+01 5.5159455960672572e+00 0 0 0
373 1 7.1353475939752791e+00 2.0607503108440458e+01 6.9469184669238899e+00 0 0 0
374 1 8.4265570700303822e+00 2.1764277853374374e+01 8.4173151520800840e+00 0 0 0
378 1 1.1102878835356188e+01 2.1896720531023220e+01 5.7135905212815494e+00 0 0 0
381 1 1.2498021299325030e+01 2.0523003221285354e+01 7.0623626615374322e+00 0 0 0
340 1 1.1081737852221684e+01 1.9127579367671803e+01 8.4249603819816219e+00 0 0 0
364 1 2.2181847805599603e-01 2.4707913899576738e+01 8.4442141654458549e+00 0 0 0
371 1 4.3615959991099951e+00 2.3449402674125118e+01 7.0188707175721534e+00 0 0 0
372 1 5.7900778589215873e+00 2.4608707305118958e+01 8.4491568255903484e+00 0 0 0
213 1 6.9719002455095964e+00 2.6027535503995573e+01 7.0233451384039922e+00 0 -1 0
379 1 9.7215881927534884e+00 2.3361827356146172e+01 7.1338460788261546e+00 0 0 0
380 1 1.1247640716692242e+01 2.4860134577698268e+01 8.5026578934458108e+00 0 0 0
5 1 1.4787540772733032e+00 2.6014110762622931e+01 1.7608486816368207e+00 0 -1 0
361 1 -1.0862624825856280e+00 2.0573954904933924e+01 4.5121334802034569e+00 0 0 0
483 1 -1.0855345841670929e+00 1.2570225640053376e+01 1.2484078179804532e+01 0 0 0
529 1 4.1985845327781606e+00 1.5063945570104021e+01 9.7160452518033598e+00 0 0 0
488 1 2.7666843557808232e+00 1.3882519199503687e+01 1.1112018223238904e+01 0 0 0
496 1 8.4767357090013906e+00 1.3716912984341494e+01 1.1137134879482586e+01 0 0 0
533 1 7.1008313831599876e+00 1.5098586268570221e+01 1.2397072429379319e+01 0 0 0
343 1 1.2418156965456724e+01 1.7934129023443578e+01 4.2713832138134187e+00 0 0 0
537 1 9.6730099554375908e+00 1.5209611486126933e+01 9.7420522787451009e+00 0 0 0
522 1 1.4193683866985840e-01 1.6693121191745096e+01 1.1176619521548194e+01 0 0 0
527 1 1.6104130836045656e+00 1.7887336833467391e+01 9.8156395336125044e+00 0 0 0
531 1 4.3026866910778825e+00 1.7912150635019021e+01 1.2382223216600236e+01 0 0 0
530 1 5.6254799588953635e+00 1.6461965379171893e+01 1.1051093189761094e+01 0 0 0
535 1 7.2383922087943793e+00 1.7925738074110093e+01 9.7891400818392444e+00 0 0 0
536 1 8.4828264695534372e+00 1.9353856527500362e+01 1.1180755206919789e+01 0 0 0
577 1 9.8326898166721008e+00 2.0632094094176363e+01 9.7832790782016232e+00 0 0 0
538 1 1.1147045138461547e+01 1.6572832993028126e+01 1.0975350105028957e+01 0 0 0
539 1 9.8089940169727825e+00 1.7982735670524743e+01 1.2275260321013548e+01 0 0 0