LAMMPS data file via write_data, version 30 Jul 2016, timestep = 2000

3000 atoms
1 atom types

-1.1037168687938550e+00 2.6103716868793796e+01 xlo xhi
-3.3111506063815597e+00 7.8311150606381062e+01 ylo yhi
-1.1037168687938550e+00 2.6103716868793796e+01 zlo zhi

Masses

1 28.0855

Atoms # atomic

2 1 1.4644237979981861e-01 -1.8014384384310074e+00 2.4577596913541491e-01 0 0 0
3 1 -1.1003073708974804e+00 -5.4200013378369061e-01 1.7248499174115797e+00 0 0 0
5 1 1.6119912367991660e+00 -3.2187089336701233e+00 1.5730150095748885e+00 0 0 0
7 1 1.6722751998647651e+00 -5.0013980198694985e-01 -1.0250895247118845e+00 0 0 0
11 1 4.4504280342872429e+00 -6.0236266766812963e-01 1.8080680923083348e+00 0 0 0
10 1 5.6180429934538161e+00 -2.0207904620303152e+00 2.7933836875458845e-01 0 0 0
1359 1 2.3388614949559329e+01 1.5677558258602625e+01 9.6789654071005522e+00 0 0 0
19 1 9.6688010033399134e+00 -6.7551399712388982e-01 1.6408659462901163e+00 0 0 0
18 1 1.1052971360245108e+01 -2.0559506106643268e+00 2.9311136286343792e-01 0 0 0
23 1 1.2413723823472841e+01 -7.0198313879979390e-01 -1.0655242631439354e+00 0 0 0
27 1 1.5152522785440190e+01 -4.5432129258223658e-01 1.6412147883746264e+00 0 0 0
26 1 1.6616379100198550e+01 -1.9309292931987201e+00 4.0779049040942567e-01 0 0 0
34 1 2.1967555807851195e+01 -2.0243583949400734e+00 1.4263834120720922e-02 0 0 0
35 1 2.0755117405846406e+01 -8.0333945006343488e-01 1.7077426543724132e+00 0 0 0
1209 1 4.2156314922821760e+00 -3.3071114952711298e+00 9.7286604635662979e+00 0 0 0
45 1 1.7003926973495243e+00 2.1681939708769842e+00 1.6868487502869194e+00 0 0 0
637 1 2.3236692870762965e+01 -3.2991192731468146e+00 7.0271957553315989e+00 0 0 0
8 1 3.0497291823530945e+00 8.2787409888785335e-01 3.3472232914732603e-01 0 0 0
53 1 7.0627231201533380e+00 2.0887283540239117e+00 1.6781107083106444e+00 0 0 0
16 1 8.4864084232236134e+00 6.8260578607975020e-01 2.6104964302170791e-01 0 0 0
625 1 1.5233292533337247e+01 -3.1459342669156172e+00 4.3886054492401252e+00 0 0 0
61 1 1.2487433544498899e+01 2.0203480104008791e+00 1.5683976021833155e+00 0 0 0
24 1 1.3863038053748079e+01 7.6903565559713793e-01 7.9033699358455528e-02 0 0 0
1328 1 2.9748248452893824e+00 1.6941139534543357e+01 1.1232868994723299e+01 0 0 0
69 1 1.8037756523787102e+01 2.2506834471789889e+00 1.6257250091401727e+00 0 0 0
32 1 1.9472151110246951e+01 7.6375880038936450e-01 4.0112145455094328e-01 0 0 0
73 1 2.0799227803552814e+01 2.0492288077067982e+00 -1.0847653375161685e+00 0 0 0
77 1 2.3329546935956870e+01 1.9064715259883598e+00 1.4221070874783435e+00 0 0 0
40 1 2.4642885171964132e+01 5.3542717216790059e-01 1.5196005618727981e-01 0 0 0
42 1 2.5025631299318646e-01 3.4123189510111831e+00 3.1660073190977300e-01 0 0 0
43 1 2.5869990284782173e+01 4.7701229221320816e+00 1.4222827696009508e+00 -1 0 0
47 1 1.6161081174704524e+00 4.8260147253513761e+00 -1.0036041475252309e+00 0 0 0
51 1 4.3833780444171779e+00 4.8425350784592593e+00 1.6611158741931540e+00 0 0 0
50 1 5.6664327618639412e+00 3.5466252719786926e+00 3.0690714177984185e-01 0 0 0
59 1 9.9131961428772541e+00 4.9065922986213417e+00 1.4632124558504922e+00 0 0 0
58 1 1.1205031542411232e+01 3.3689620442301367e+00 2.0447558943530564e-01 0 0 0
67 1 1.5210904775464012e+01 4.8685121656704471e+00 1.6879737718345191e+00 0 0 0
66 1 1.6694727969822559e+01 3.4872471048625964e+00 2.9204928412812720e-01 0 0 0
74 1 2.2243423725536733e+01 3.5692582585832442e+00 6.3634177301806469e-02 0 0 0
75 1 2.0761194824267239e+01 4.8398553196329761e+00 1.4761482414181486e+00 0 0 0
740 1 1.1199686087411543e+01 1.7066710355565540e+01 8.4078738610919039e+00 0 0 0
85 1 1.6002819511672026e+00 7.5441047552123015e+00 1.5386659508920433e+00 0 0 0
48 1 3.0717366112450155e+00 6.2262831373102312e+00 3.5478687926546870e-01 0 0 0
89 1 4.3655131419608324e+00 7.6547473226510938e+00 -1.0471615004827295e+00 0 0 0
93 1 7.1797402741810625e+00 7.6441772399149173e+00 1.4454774518547091e+00 0 0 0
56 1 8.5231784854691135e+00 6.1973384037248689e+00 1.4332228198083821e-01 0 0 0
732 1 5.8467555079769644e+00 1.7094279954577129e+01 8.4183046803066368e+00 0 0 0
64 1 1.3852959619808871e+01 6.1836309071462878e+00 2.6821048583744933e-01 0 0 0
101 1 1.2568465771432981e+01 7.4848381901994285e+00 1.6646084798333560e+00 0 0 0
72 1 1.9429557197323813e+01 6.2310381202746266e+00 1.9953620042134634e-01 0 0 0
109 1 1.8035045226848819e+01 7.5037842435522757e+00 1.5390850303854093e+00 0 0 0
724 1 4.4035389538899711e-01 1.7070878662760908e+01 8.3513522343221602e+00 0 0 0
736 1 8.5416523408660776e+00 1.7029688717075128e+01 5.7232424449413690e+00 0 0 0
80 1 2.4663068114166805e+01 6.3283251411937043e+00 -1.0111329927927648e-01 0 0 0
117 1 2.3396988305704841e+01 7.5754857691643256e+00 1.4925960435504075e+00 0 0 0
82 1 3.6374649846573248e-01 8.9861553184131715e+00 2.4035915972935404e-01 0 0 0
87 1 1.7141195502243320e+00 1.0365506464983204e+01 -1.0802515486530748e+00 0 0 0
91 1 4.4395937708209008e+00 1.0210811058532416e+01 1.6377081650695049e+00 0 0 0
90 1 5.7699271886546724e+00 8.9968272725235732e+00 1.9649923986681023e-01 0 0 0
728 1 2.9801378700264771e+00 1.7060171985707477e+01 5.6069901536757945e+00 0 0 0
99 1 9.7864981388068522e+00 1.0356724877487515e+01 1.5269869846196888e+00 0 0 0
98 1 1.1150892001461116e+01 8.8017199752385018e+00 2.1299087297363861e-01 0 0 0
106 1 1.6587739409447767e+01 8.8793034251882972e+00 1.9485163986007442e-01 0 0 0
107 1 1.5259638053459309e+01 1.0211728338260619e+01 1.5927460516359455e+00 0 0 0
111 1 1.8073189568482938e+01 1.0215500425780224e+01 -1.0871713553424098e+00 0 0 0
114 1 2.2043837750374465e+01 9.0092674784829487e+00 1.6456546398636460e-01 0 0 0
115 1 2.0641290419751503e+01 1.0333423487595295e+01 1.5467294897895367e+00 0 0 0
83 1 -1.0551013889788017e+00 1.0424898465183082e+01 1.4645902717095340e+00 0 0 0
125 1 1.7345120831865106e+00 1.2985086160325880e+01 1.6714989785025551e+00 0 0 0
1322 1 1.6819907271709428e-01 1.4316769434657914e+01 1.1049284564773290e+01 0 0 0
88 1 3.0286095751270881e+00 1.1606800354424465e+01 3.1051363044935676e-01 0 0 0
133 1 7.0184698166930284e+00 1.3016652176372995e+01 1.5920224975904418e+00 0 0 0
96 1 8.3748411242964593e+00 1.1609290102524763e+01 1.2748306650670585e-01 0 0 0
137 1 9.7699716962681791e+00 1.2982824196934249e+01 -1.0647899806129286e+00 0 0 0
141 1 1.2556053382356064e+01 1.3000223668737812e+01 1.5430012630061551e+00 0 0 0
104 1 1.3913290150974865e+01 1.1563723510728417e+01 1.7385355694131044e-01 0 0 0
1327 1 1.8022912206956543e+00 1.5755378056553139e+01 9.7054466526342225e+00 0 0 0
149 1 1.7899963565842121e+01 1.2988314553488525e+01 1.5678019664043434e+00 0 0 0
112 1 1.9259096388627277e+01 1.1769555528759502e+01 1.7586618931141873e-01 0 0 0
1323 1 2.6042929570288877e+01 1.5714010694453316e+01 1.2440819247330387e+01 -1 0 0
154 1 2.2149572900380956e+01 1.4382957529715165e+01 1.5092397102517768e-01 0 0 0
1320 1 2.4630763675194871e+01 1.1704259472410596e+01 1.1010159912852545e+01 0 0 0
157 1 2.3410740819902060e+01 1.2977568130115516e+01 1.5985732467768972e+00 0 0 0
120 1 2.4716862434572128e+01 1.1663643635081558e+01 2.7012073859413996e-02 0 0 0
122 1 2.4580021351626205e-01 1.4305151942436272e+01 2.6442966986539035e-01 0 0 0
127 1 1.6018303652324850e+00 1.5738677961139036e+01 -1.0130064447132414e+00 0 0 0
131 1 4.4393685502594371e+00 1.5832290267120262e+01 1.5842623657776174e+00 0 0 0
130 1 5.6493260533442848e+00 1.4288613511845650e+01 3.3563874733580745e-01 0 0 0
135 1 6.9918749603871237e+00 1.5631504308446196e+01 -9.7126870914656349e-01 0 0 0
139 1 9.8281574111048133e+00 1.5717303275405442e+01 1.7440805824531564e+00 0 0 0
136 1 8.4451656869053124e+00 1.7042312730295905e+01 1.9462224180924864e-01 0 0 0
138 1 1.1121958489717738e+01 1.4335676367276744e+01 4.4051748459164441e-01 0 0 0
143 1 1.2621562363534242e+01 1.5666501518294279e+01 -8.8758651569031155e-01 0 0 0
147 1 1.5406185966475901e+01 1.5715970746299440e+01 1.6764071156082285e+00 0 0 0
146 1 1.6572013516418135e+01 1.4427676850916658e+01 1.5249007677721488e-01 0 0 0
1360 1 2.4636094682468254e+01 1.7022484965687177e+01 1.1063776328849864e+01 0 0 0
155 1 2.0707332723742017e+01 1.5796392763469971e+01 1.6585307998715793e+00 0 0 0
123 1 -1.0030684605033073e+00 1.5671103595233449e+01 1.4971256852669044e+00 0 0 0
1353 1 2.0576312842022165e+01 1.2906358923938919e+01 9.6387092852041789e+00 0 0 0
160 1 2.4818276622550197e+01 1.7076368687027863e+01 2.7668469567688841e-01 0 0 0
607 1 1.4910132262646496e+00 -5.7082325902993547e-01 4.4403314670962777e+00 0 0 0
609 1 4.3390797225179485e+00 -3.2624680349683106e+00 4.3971524687838119e+00 0 0 0
6 1 2.9565020929793535e+00 -1.9054917648475400e+00 3.0634239691367622e+00 0 0 0
615 1 7.1236576795853734e+00 -6.9405875502296832e-01 4.3831256728200740e+00 0 0 0
610 1 5.6086021064833504e+00 -1.9264285906449086e+00 5.8106269869534675e+00 0 0 0
14 1 8.4585958240460588e+00 -2.1774706281583289e+00 3.0673275130138808e+00 0 0 0
1354 1 2.1956763168578888e+01 1.4331219354619524e+01 1.1042346277420794e+01 0 0 0
22 1 1.3829470323702235e+01 -1.9133882311039727e+00 3.0357165146252503e+00 0 0 0
623 1 1.2401157998239722e+01 -6.9082810845927400e-01 4.4057039114170458e+00 0 0 0
631 1 1.8001723113235890e+01 -6.1149159741250625e-01 4.2718631642118394e+00 0 0 0
30 1 1.9432456732672708e+01 -2.1568322551456172e+00 3.0264060207308101e+00 0 0 0
1355 1 2.0581319807617209e+01 1.5770595918898266e+01 1.2422391403125211e+01 0 0 0
634 1 2.2043943611824012e+01 -1.9211977600657710e+00 5.6864069838999489e+00 0 0 0
38 1 2.4655162439733996e+01 -2.1210028398989582e+00 2.9329254173506460e+00 0 0 0
639 1 2.3331694421294642e+01 -6.5105911934915572e-01 4.1292309410533532e+00 0 0 0
4 1 3.7188822132599120e-01 8.1175253651613422e-01 3.0645113278306950e+00 0 0 0
649 1 4.5110460892348625e+00 2.1285335813350956e+00 4.2752525904318999e+00 0 0 0
12 1 5.8298219747110780e+00 6.9400876482427964e-01 3.1632381098617968e+00 0 0 0
657 1 9.7462780175426502e+00 2.1929624599038662e+00 4.3292880980091413e+00 0 0 0
20 1 1.1080830957968530e+01 7.0824204721977158e-01 2.9292176408958728e+00 0 0 0
624 1 1.3885483275837766e+01 6.7374565307497591e-01 5.6531652007776021e+00 0 0 0
665 1 1.5176191386265245e+01 1.9902675987173206e+00 4.2460855493928698e+00 0 0 0
28 1 1.6563165900842321e+01 8.0195810716055249e-01 2.9407895752785103e+00 0 0 0
632 1 1.9374738770977125e+01 6.9141697670591951e-01 5.4237760565421436e+00 0 0 0
673 1 2.0780968533551292e+01 2.1546269150034574e+00 4.2650055340519364e+00 0 0 0
36 1 2.1991095788924127e+01 7.0354596290996452e-01 2.8366368596484994e+00 0 0 0
641 1 2.5966175876037976e+01 2.1155318984584950e+00 4.2553043850148642e+00 -1 0 0
647 1 1.5703711688956941e+00 4.9379626348976942e+00 4.1339228337055935e+00 0 0 0
46 1 3.0940882437391157e+00 3.5202581307972833e+00 2.9668818647252206e+00 0 0 0
655 1 7.2050215127729009e+00 4.8547299885916919e+00 4.1968931288227012e+00 0 0 0
54 1 8.6369814765952810e+00 3.4833922105955764e+00 2.8159500559465789e+00 0 0 0
62 1 1.3771685596684890e+01 3.3728098546996224e+00 2.8482534521504062e+00 0 0 0
663 1 1.2574206183660664e+01 4.7514591328702753e+00 4.3581865532762292e+00 0 0 0
658 1 1.1113070585131789e+01 3.4238766114897632e+00 5.7564843580892484e+00 0 0 0
671 1 1.7892536976299468e+01 4.8104330556715045e+00 4.1198484304362610e+00 0 0 0
70 1 1.9387995464002415e+01 3.5378356521424643e+00 2.8675653525125542e+00 0 0 0
78 1 2.4682347819286491e+01 3.3072239666984977e+00 2.7741854770795453e+00 0 0 0
679 1 2.3535213840233137e+01 4.8383312462280728e+00 4.1737059933509384e+00 0 0 0
44 1 2.4618924604247358e-01 6.0896030740986964e+00 2.7115167050598670e+00 0 0 0
681 1 -9.7674894023314318e-01 7.6489400292665133e+00 4.1906798168597543e+00 0 0 0
689 1 4.3448962824920425e+00 7.5107947686167007e+00 4.1842083625227859e+00 0 0 0
52 1 5.8626755042939012e+00 6.2341666930943349e+00 2.8218738076337795e+00 0 0 0
697 1 9.8552311418346363e+00 7.6499292119402451e+00 4.2625144646066966e+00 0 0 0
656 1 8.4873117899868298e+00 6.1599249909378777e+00 5.6235370559509175e+00 0 0 0
60 1 1.1175966992635882e+01 6.1706407583069209e+00 3.1169188192830144e+00 0 0 0
664 1 1.3990846062641300e+01 6.2554193582610838e+00 5.6797601288846149e+00 0 0 0
68 1 1.6646209068319777e+01 6.3169980815504845e+00 2.9218290447464614e+00 0 0 0
705 1 1.5399563134761841e+01 7.5679067955526431e+00 4.4061800311665937e+00 0 0 0
76 1 2.2093025815303420e+01 6.2012033535530540e+00 2.8709359060798310e+00 0 0 0
713 1 2.0568300047634825e+01 7.4838465125045817e+00 4.1325839372535391e+00 0 0 0
680 1 2.4832794708268846e+01 6.2590667627312531e+00 5.6023627817290640e+00 0 0 0
687 1 1.5985700885283316e+00 1.0213054123336510e+01 4.2503369516651626e+00 0 0 0
86 1 2.9552184215326638e+00 8.8859679901368800e+00 2.8496719859552209e+00 0 0 0
695 1 7.1537104620197480e+00 1.0385245267621578e+01 4.4103417087941379e+00 0 0 0
94 1 8.3990178048901178e+00 9.1132066014015756e+00 2.9719336446876543e+00 0 0 0
102 1 1.3944574122883983e+01 8.8045003451833121e+00 2.8680912429179810e+00 0 0 0
703 1 1.2548099874365860e+01 1.0200060475118550e+01 4.2244891661392074e+00 0 0 0
110 1 1.9305558070707768e+01 8.9815623756098404e+00 2.7496153192949642e+00 0 0 0
711 1 1.8017672197000081e+01 1.0235099837212372e+01 4.1721880917856549e+00 0 0 0
118 1 2.4772711053113042e+01 9.1039485647340097e+00 2.6870361780057226e+00 0 0 0
719 1 2.3302160748569253e+01 1.0366767767740017e+01 4.2014050393860245e+00 0 0 0
84 1 2.6377904065077923e-01 1.1683015830755474e+01 2.9114301622916408e+00 0 0 0
729 1 4.2581618771895107e+00 1.2947766952144548e+01 4.4557490572188234e+00 0 0 0
92 1 5.6946871553580207e+00 1.1600894386219657e+01 3.0365105363555789e+00 0 0 0
737 1 9.7210714179189708e+00 1.2826982264379705e+01 4.3887365822545696e+00 0 0 0
100 1 1.1138530844093724e+01 1.1571706878446919e+01 2.9281387405283694e+00 0 0 0
704 1 1.3786619134345418e+01 1.1685793126543148e+01 5.7212189062602956e+00 0 0 0
745 1 1.5290365251948813e+01 1.2950498433969488e+01 4.2959120378143396e+00 0 0 0
108 1 1.6639412325284077e+01 1.1531301875427316e+01 2.8946087362747059e+00 0 0 0
753 1 2.0662660552717490e+01 1.3020692667378782e+01 4.1685907453194364e+00 0 0 0
116 1 2.1979426814296726e+01 1.1631053076937388e+01 2.9710448890238736e+00 0 0 0
721 1 -1.0900420067044720e+00 1.3087339199808675e+01 4.2928879768657868e+00 0 0 0
158 1 2.4840230148247709e+01 1.4391550429143708e+01 2.8825040480444124e+00 0 0 0
727 1 1.5788857507520118e+00 1.5751416314034497e+01 4.4342938553743219e+00 0 0 0
124 1 2.1656259351767482e-01 1.7027646698723025e+01 2.8859996318007433e+00 0 0 0
126 1 3.0732294847663941e+00 1.4416258234504109e+01 3.0254484352431419e+00 0 0 0
735 1 7.0690117402991790e+00 1.5763739912180714e+01 4.3627592346484807e+00 0 0 0
730 1 5.7225400327423044e+00 1.4443089380374316e+01 5.6595343039047483e+00 0 0 0
132 1 5.7619711794351147e+00 1.7080431933934083e+01 2.9617477721547938e+00 0 0 0
134 1 8.4624855551795832e+00 1.4273004586694423e+01 3.0517907027860041e+00 0 0 0
142 1 1.3929211705515256e+01 1.4363900044184181e+01 3.0137196994166149e+00 0 0 0
743 1 1.2625289208828210e+01 1.5682813752151768e+01 4.4301744219633825e+00 0 0 0
1351 1 1.7895858045548245e+01 1.5798103230115029e+01 9.8407735492629076e+00 0 0 0
1346 1 1.6519491621168644e+01 1.4370770273025384e+01 1.1280566631346787e+01 0 0 0
751 1 1.7916036720868828e+01 1.5703190329859192e+01 4.2822547244040612e+00 0 0 0
150 1 1.9249798142629935e+01 1.4435433059894288e+01 2.9224358073166417e+00 0 0 0
1338 1 1.1061708861826789e+01 1.4240795234582569e+01 1.1131792324798306e+01 0 0 0
759 1 2.3439998366506916e+01 1.5731814084726709e+01 4.1758041603360390e+00 0 0 0
602 1 1.2096844835511000e-01 -2.1578378502926392e+00 5.7334493540392852e+00 0 0 0
611 1 4.3582215951868299e+00 -4.7395566725073857e-01 7.0679147469524928e+00 0 0 0
606 1 2.9605318483877037e+00 -1.7993687099330429e+00 8.3592075273679836e+00 0 0 0
614 1 8.4532745846292112e+00 -2.1096027186428539e+00 8.3674425541828494e+00 0 0 0
619 1 9.8191928678819043e+00 -6.5494718427198295e-01 7.1046361131447462e+00 0 0 0
618 1 1.1159102837643969e+01 -2.1402556475449099e+00 5.7906351694518410e+00 0 0 0
1343 1 1.2418268917485271e+01 1.5650450348329908e+01 9.8017718341721025e+00 0 0 0
622 1 1.4005957596769697e+01 -1.9976499196022144e+00 8.4641867682415945e+00 0 0 0
626 1 1.6648767995181579e+01 -2.0262492169438286e+00 5.7945116075665082e+00 0 0 0
627 1 1.5155532086759278e+01 -5.0589062736998269e-01 7.0346327186111735e+00 0 0 0
630 1 1.9397322243604755e+01 -2.0067861877094755e+00 8.2872092617701476e+00 0 0 0
635 1 2.0673655297436291e+01 -4.8859701502864095e-01 7.0241482226648060e+00 0 0 0
603 1 2.5923975931006858e+01 -6.0426946940612958e-01 7.0390301986586810e+00 -1 0 0
638 1 2.4701104991386771e+01 -2.0778357611620186e+00 8.4841477624155139e+00 0 0 0
604 1 2.7194597796147091e-01 7.0401428652137366e-01 8.2919217685960795e+00 0 0 0
645 1 1.5659156607293305e+00 2.1217264899052619e+00 6.9204540643032919e+00 0 0 0
608 1 3.0023660978034168e+00 8.6803892099722868e-01 5.6494510793638204e+00 0 0 0
612 1 5.6957845943838761e+00 9.0073071586961584e-01 8.3389872883248444e+00 0 0 0
653 1 7.2182007057636959e+00 2.0646825344238122e+00 7.1249766585545569e+00 0 0 0
616 1 8.4986527278832682e+00 7.0941924264868594e-01 5.6789760165320855e+00 0 0 0
620 1 1.1208349837768870e+01 5.6020336156305317e-01 8.5078223504605397e+00 0 0 0
661 1 1.2478838455894332e+01 2.0379527460343492e+00 6.9847148162743986e+00 0 0 0
628 1 1.6674227371490392e+01 7.1384477865655371e-01 8.4660260167655057e+00 0 0 0
669 1 1.7966038203643372e+01 2.0430027432296209e+00 6.9937734545365204e+00 0 0 0
636 1 2.1994707299350534e+01 8.2469020636904877e-01 8.3275453647244984e+00 0 0 0
640 1 2.4550109785130736e+01 7.6037879163878441e-01 5.6162593362334015e+00 0 0 0
677 1 2.3399238664897169e+01 2.1766135511666191e+00 6.9655236499350330e+00 0 0 0
642 1 2.3419418626920405e-01 3.5487529618824762e+00 5.4834735372679511e+00 0 0 0
643 1 2.6034832010457205e+01 4.8197942093843338e+00 6.9971554975946368e+00 -1 0 0
651 1 4.4814525784202166e+00 4.7696871398881715e+00 6.8990020311599967e+00 0 0 0
646 1 2.9716533268875818e+00 3.5636684616076000e+00 8.2599009844899367e+00 0 0 0
650 1 5.9203665390578761e+00 3.5067532112289683e+00 5.5692572022642510e+00 0 0 0
654 1 8.5448143060479378e+00 3.5290302420445085e+00 8.4459314196579829e+00 0 0 0
659 1 9.7008023767300013e+00 4.7587350594601183e+00 6.9705373171398879e+00 0 0 0
662 1 1.4007420571826007e+01 3.3528327477522812e+00 8.2596145785048893e+00 0 0 0
666 1 1.6532893827644891e+01 3.3643141450632332e+00 5.5094951082438754e+00 0 0 0
667 1 1.5225960807761632e+01 4.7889776893795535e+00 6.9928776451256489e+00 0 0 0
670 1 1.9144549043390452e+01 3.4495333252266329e+00 8.3156481163289619e+00 0 0 0
674 1 2.2077766044441315e+01 3.5706665650278842e+00 5.5511400654241871e+00 0 0 0
675 1 2.0663641465900689e+01 4.7985966446108232e+00 7.0459914788217377e+00 0 0 0
678 1 2.4737223646348998e+01 3.5105143799854917e+00 8.2239033353170949e+00 0 0 0
644 1 1.2717017437981312e-01 6.0577872288424937e+00 8.3887426812792114e+00 0 0 0
685 1 1.5396644308628384e+00 7.3567740193240292e+00 7.0633772051019612e+00 0 0 0
648 1 3.0782723576038373e+00 6.1029421163058943e+00 5.6539868241598636e+00 0 0 0
652 1 5.6876006275225892e+00 6.1649143945354252e+00 8.2560475764035406e+00 0 0 0
693 1 7.0850961975570144e+00 7.5175307355337004e+00 6.8981142788446990e+00 0 0 0
660 1 1.1264887330494465e+01 6.0641636597137261e+00 8.1394225372866273e+00 0 0 0
701 1 1.2673099064901715e+01 7.5468186724067419e+00 7.0005431197295591e+00 0 0 0
668 1 1.6571826584378215e+01 6.1611643907534894e+00 8.1879488622522487e+00 0 0 0
672 1 1.9297479714491800e+01 6.0213396537542074e+00 5.5160406918239753e+00 0 0 0
709 1 1.8037585563789058e+01 7.5202854472101821e+00 6.9157963587854647e+00 0 0 0
676 1 2.2008738151674553e+01 6.1985858619948466e+00 8.3768202677540700e+00 0 0 0
717 1 2.3310109218975818e+01 7.5278162309309513e+00 6.8934718342657186e+00 0 0 0
682 1 3.5093372288275609e-01 8.8827273311871657e+00 5.6963040515626595e+00 0 0 0
686 1 2.9832906866868156e+00 8.7592478892039871e+00 8.2612759269472988e+00 0 0 0
691 1 4.2356372122779460e+00 1.0302642193639706e+01 6.9028367113551399e+00 0 0 0
690 1 5.6874431454619332e+00 8.8582376369566589e+00 5.5317276275426526e+00 0 0 0
694 1 8.4117648080468879e+00 8.8201782577306762e+00 8.3213791451539336e+00 0 0 0
699 1 9.9141583592488516e+00 1.0252088925999038e+01 6.9969901870863360e+00 0 0 0
698 1 1.1285224770813722e+01 8.9088778182375972e+00 5.6247343047094986e+00 0 0 0
702 1 1.3979368517720637e+01 8.9771061251011819e+00 8.3828165166983108e+00 0 0 0
706 1 1.6790255428474232e+01 8.9141779968332102e+00 5.6794444342223782e+00 0 0 0
707 1 1.5289134551738524e+01 1.0375036107622154e+01 6.9550588360385781e+00 0 0 0
710 1 1.9254596079462448e+01 8.8620492867948979e+00 8.3558034484902439e+00 0 0 0
714 1 2.1996950323013781e+01 8.9066964649232183e+00 5.4584927469426576e+00 0 0 0
715 1 2.0590473154496785e+01 1.0226545243827708e+01 6.8797222448069810e+00 0 0 0
683 1 2.6038364550325863e+01 1.0321566063095155e+01 6.9648235267433538e+00 -1 0 0
718 1 2.4661419315744553e+01 8.8606332473376188e+00 8.3088793280033695e+00 0 0 0
684 1 2.4569404399285533e-01 1.1617581605607310e+01 8.2983728860720500e+00 0 0 0
725 1 1.5788207043619424e+00 1.3097771523923031e+01 6.9791404390354055e+00 0 0 0
688 1 2.7641043073398670e+00 1.1572207683516799e+01 5.6028843269653930e+00 0 0 0
692 1 5.6656550417517817e+00 1.1402051772645864e+01 8.5436001511779818e+00 0 0 0
733 1 6.8743712313115992e+00 1.2931898231241826e+01 7.1209315902709385e+00 0 0 0
696 1 8.3703647686169056e+00 1.1567249799557255e+01 5.8227524944444884e+00 0 0 0
700 1 1.1172000274718934e+01 1.1665127258747980e+01 8.4133003232359478e+00 0 0 0
741 1 1.2503516905203524e+01 1.3094181375002538e+01 7.1067464581825712e+00 0 0 0
708 1 1.6672328945439538e+01 1.1679371641460147e+01 8.4132928398309605e+00 0 0 0
712 1 1.9299482144721548e+01 1.1682113433777642e+01 5.5685886679590828e+00 0 0 0
749 1 1.8012711502656295e+01 1.3092039298139660e+01 7.0645567704651668e+00 0 0 0
716 1 2.2044655555127992e+01 1.1581866809340656e+01 8.3204265214159268e+00 0 0 0
720 1 2.4735955202957363e+01 1.1676200324036751e+01 5.5854324024784567e+00 0 0 0
757 1 2.3399583504529186e+01 1.2973803706261746e+01 6.9472207820017760e+00 0 0 0
722 1 1.4020868491957225e-01 1.4465274996824657e+01 5.7168046906656560e+00 0 0 0
731 1 4.4027254312853197e+00 1.5826103551186458e+01 6.9900851005186979e+00 0 0 0
726 1 3.2087894521567981e+00 1.4255122072433309e+01 8.3458546187354408e+00 0 0 0
734 1 8.3266904823642189e+00 1.4278236488978491e+01 8.4126830697748556e+00 0 0 0
739 1 9.8687560179470868e+00 1.5727167408805689e+01 7.1170513139950478e+00 0 0 0
738 1 1.1127748249560986e+01 1.4262918873185795e+01 5.6806954980811284e+00 0 0 0
1336 1 8.4356521778461087e+00 1.7071905318833888e+01 1.1197842944440705e+01 0 0 0
742 1 1.3924888634105367e+01 1.4373119195785693e+01 8.5435268192963463e+00 0 0 0
746 1 1.6750546239610379e+01 1.4374186538811283e+01 5.7460206792264854e+00 0 0 0
747 1 1.5422311308538335e+01 1.5791215726453387e+01 7.1310426734477366e+00 0 0 0
752 1 1.9429796905023423e+01 1.7037938282004188e+01 5.7020466923671238e+00 0 0 0
750 1 1.9357466236650151e+01 1.4399224949790714e+01 8.3409374383087904e+00 0 0 0
754 1 2.1991950678369356e+01 1.4380396706841804e+01 5.6080240829942198e+00 0 0 0
755 1 2.0764638830918983e+01 1.5765974824593307e+01 7.0741805445064312e+00 0 0 0
756 1 2.2072171933364487e+01 1.7089441829420085e+01 8.3683003930939481e+00 0 0 0
1330 1 5.7318516557761114e+00 1.4341692739870947e+01 1.1159444968106877e+01 0 0 0
723 1 -1.0651498973685065e+00 1.5794846359510675e+01 7.0066197225176756e+00 0 0 0
758 1 2.4811035369228509e+01 1.4474624167385814e+01 8.2782344158357990e+00 0 0 0
1202 1 2.8570058995621611e-01 -1.9029215593128788e+00 1.1030000149263147e+01 0 0 0
1207 1 1.6913972095542325e+00 -5.4289001014154070e-01 9.7222068523194807e+00 0 0 0
1211 1 4.3607569637183579e+00 -7.0176694338827506e-01 1.2491807074734307e+01 0 0 0
1210 1 5.6024786202074068e+00 -1.8613787295106952e+00 1.0986345225673816e+01 0 0 0
1215 1 7.0385604626676015e+00 -5.0103762842836708e-01 9.7361612528723089e+00 0 0 0
1218 1 1.1243571224107175e+01 -2.0612666954855525e+00 1.1177979665791449e+01 0 0 0
1223 1 1.2426519296620238e+01 -8.3331968929755362e-01 9.7466492898833526e+00 0 0 0
1226 1 1.6782995747585950e+01 -1.9868313767779078e+00 1.1173670977888566e+01 0 0 0
1231 1 1.8041734167870455e+01 -6.1359055047634836e-01 9.7967005077138527e+00 0 0 0
1234 1 2.2005337768588387e+01 -1.9414880179528831e+00 1.1050606762244408e+01 0 0 0
1335 1 7.0893572593776932e+00 1.5743402937657807e+01 9.7538624449292612e+00 0 0 0
1203 1 2.6059587677864286e+01 -7.5480298903192589e-01 1.2365888064686375e+01 -1 0 0
1239 1 2.3338747507194604e+01 -6.0813106100979708e-01 9.5921680806013665e+00 0 0 0
1241 1 2.5988992853220218e+01 2.1275433914274076e+00 9.6525860155247205e+00 -1 0 0
1249 1 4.2225357300467179e+00 2.1694925359304529e+00 9.6072933548862096e+00 0 0 0
1208 1 3.0058149126378706e+00 6.0437402133991702e-01 1.1106730407796885e+01 0 0 0
1216 1 8.3199471366745907e+00 8.7225588171835655e-01 1.1190112528884493e+01 0 0 0
1257 1 9.7807459747333958e+00 2.0317469994776070e+00 9.7755243943215184e+00 0 0 0
1224 1 1.3792121739968126e+01 5.6181584268877827e-01 1.1063626599569190e+01 0 0 0
1261 1 1.2518046162413150e+01 2.0904180296120560e+00 1.2352651848653881e+01 0 0 0
1265 1 1.5261418565019556e+01 2.0434876238872581e+00 9.7643999564092070e+00 0 0 0
1232 1 1.9290445188834028e+01 8.2397827488429309e-01 1.1048941426981088e+01 0 0 0
1269 1 1.7973285232604422e+01 2.0473218074110151e+00 1.2383174656086542e+01 0 0 0
1273 1 2.0614785756748628e+01 2.1377908016492997e+00 9.6970691790405343e+00 0 0 0
1240 1 2.4728952020018788e+01 6.4900415004028444e-01 1.0979075612878070e+01 0 0 0
1242 1 3.1273128347959689e-01 3.2752421407569003e+00 1.1062391969094804e+01 0 0 0
1247 1 1.6303481013624184e+00 4.9092194225843135e+00 9.6169523027579231e+00 0 0 0
1250 1 5.6324559883644438e+00 3.4455011647705067e+00 1.1016507192014082e+01 0 0 0
1255 1 7.0912829789496685e+00 4.8624438930440190e+00 9.6896872360192159e+00 0 0 0
1258 1 1.1183352261742675e+01 3.4395906364269058e+00 1.0970886729097188e+01 0 0 0
1263 1 1.2585929421383616e+01 4.6936689303484531e+00 9.5167890744218298e+00 0 0 0
1266 1 1.6549521740616431e+01 3.3838523601524866e+00 1.1223496809727070e+01 0 0 0
1267 1 1.5130218059252440e+01 4.8505911648494395e+00 1.2489299066372983e+01 0 0 0
1271 1 1.7862677406873285e+01 4.8344345584909520e+00 9.7636788232305562e+00 0 0 0
1274 1 2.2036668139232763e+01 3.4697508535801602e+00 1.1047137991792642e+01 0 0 0
1279 1 2.3437395306636489e+01 4.8117359404089992e+00 9.6727428012411014e+00 0 0 0
1289 1 4.3236917131212831e+00 7.5389440672288961e+00 9.6848325093099366e+00 0 0 0
1248 1 2.9021912487069144e+00 6.2854281260759324e+00 1.1030970727311885e+01 0 0 0
1297 1 9.8265038873606922e+00 7.4040241179372455e+00 9.5853637588115266e+00 0 0 0
1256 1 8.5463224697309936e+00 6.1255915260004823e+00 1.1078719012705278e+01 0 0 0
1301 1 1.2493311607979157e+01 7.4312517248864420e+00 1.2421289165978008e+01 0 0 0
1264 1 1.3799236172044345e+01 6.0405426705113081e+00 1.0859707672848966e+01 0 0 0
1305 1 1.5189344190825953e+01 7.4704111054469085e+00 9.6081914401208106e+00 0 0 0
1272 1 1.9310964831707292e+01 6.1434079735437352e+00 1.1019313582240461e+01 0 0 0
1313 1 2.0646952834377458e+01 7.5969419073347462e+00 9.7241877482843933e+00 0 0 0
1280 1 2.4920588646202255e+01 6.1371410335842169e+00 1.0999293725503218e+01 0 0 0
1281 1 -1.0557102304976631e+00 7.6377887362328902e+00 9.6577939420472632e+00 0 0 0
1287 1 1.5953478482045476e+00 1.0261332328996312e+01 9.6181379885987557e+00 0 0 0
1282 1 2.1755501154308426e-01 8.9700439935445768e+00 1.1105672646334742e+01 0 0 0
1295 1 7.2470452395961509e+00 1.0161711592964942e+01 9.7395535062676313e+00 0 0 0
1290 1 5.7020974470860430e+00 8.8753633380931483e+00 1.1237603975245012e+01 0 0 0
1298 1 1.1076752807987146e+01 8.7978759578634378e+00 1.1019657077773815e+01 0 0 0
1312 1 1.9300311987013252e+01 1.1532160244161966e+01 1.1096025764858755e+01 0 0 0
1303 1 1.2530397131228847e+01 1.0203730434166024e+01 9.6881576218444536e+00 0 0 0
1306 1 1.6625165112844652e+01 8.8546258538370992e+00 1.1026770292051738e+01 0 0 0
1311 1 1.7878220296801075e+01 1.0202325613952109e+01 9.6770519245681133e+00 0 0 0
1314 1 2.1992681818289775e+01 8.8731105004998074e+00 1.1077724841819023e+01 0 0 0
1319 1 2.3378910026114387e+01 1.0245328225553259e+01 9.6986763910954963e+00 0 0 0
1325 1 1.5162777726847458e+00 1.3028424365759269e+01 1.2432591128609777e+01 0 0 0
1321 1 2.6070965168637006e+01 1.3042654210507660e+01 9.5780754710551719e+00 -1 0 0
1329 1 4.3566296725841580e+00 1.2874880933358481e+01 9.8213843420835687e+00 0 0 0
1288 1 2.9576057781057630e+00 1.1576489845877578e+01 1.1140721627292402e+01 0 0 0
1337 1 9.6653244742876883e+00 1.2941563574664670e+01 9.7964152336533346e+00 0 0 0
1296 1 8.4867772529831829e+00 1.1588080614757873e+01 1.1193571079820494e+01 0 0 0
1341 1 1.2554399751061842e+01 1.2996807749645521e+01 1.2499609050568523e+01 0 0 0
1304 1 1.3737777710968343e+01 1.1638305193747751e+01 1.1064585576571838e+01 0 0 0
1345 1 1.5276753587500965e+01 1.2988911422362593e+01 9.8657306756180105e+00 0 0 0
1349 1 1.7980960487194086e+01 1.2960126315496492e+01 1.2454172493457950e+01 0 0 0
1219 1 9.8078826734448104e+00 -5.7284303965227379e-01 1.2364364080281950e+01 0 0 0
1227 1 1.5373769573793078e+01 -6.6756565028718751e-01 1.2420984417080424e+01 0 0 0
1235 1 2.0665336812854203e+01 -4.8503986421018191e-01 1.2454262491137021e+01 0 0 0
1245 1 1.6771889834188369e+00 1.8274723660742738e+00 1.2409089320373244e+01 0 0 0
1213 1 6.9354742199496417e+00 -3.2806535249891198e+00 1.2428089398059729e+01 0 0 0
1253 1 7.0354489489035492e+00 2.2369451059404950e+00 1.2451849254020193e+01 0 0 0
1277 1 2.3394161439048851e+01 2.1135783301955255e+00 1.2379495872511116e+01 0 0 0
1251 1 4.3316505903019520e+00 4.8625168501572738e+00 1.2336771969508934e+01 0 0 0
1259 1 9.8068939584510897e+00 4.7670432154115314e+00 1.2445304834332928e+01 0 0 0