LAMMPS data file via write_data, version 30 Jul 2016, timestep = 2000

4000 atoms
1 atom types

-1.1037168687976475e+00 2.6103716868797584e+01 xlo xhi
-4.4148674751905901e+00 1.0441486747519033e+02 ylo yhi
-1.1037168687976475e+00 2.6103716868797584e+01 zlo zhi

Masses

1 28.0855

Atoms # atomic

1801 1 2.6099342346612563e+01 2.2707797865815696e+01 9.8270895758572117e+00 -1 0 0
2 1 1.1642351771680950e-01 -3.0868573603809706e+00 1.8382353198046808e-01 0 0 0
11 1 4.4717074341518517e+00 -1.8167425506200876e+00 1.5560349488784442e+00 0 0 0
10 1 5.7732932416415110e+00 -3.1202881956965833e+00 1.8263531086813686e-01 0 0 0
1625 1 1.5239238517158210e+01 -4.3335507069088521e+00 9.9211807362544651e+00 0 0 0
1799 1 2.3325148052900349e+01 1.9983695467087305e+01 9.6689746524950930e+00 0 0 0
19 1 9.7442606864406116e+00 -1.7087718753871615e+00 1.6591909241497669e+00 0 0 0
18 1 1.1110967164237662e+01 -3.0667612636994055e+00 2.3162674268754269e-01 0 0 0
27 1 1.5203590908860997e+01 -1.7692321375596731e+00 1.7307805297715639e+00 0 0 0
26 1 1.6652704274162883e+01 -3.0233080212619168e+00 4.2972983678182680e-01 0 0 0
31 1 1.7896250987557167e+01 -1.6597330526810701e+00 -1.0173894984807133e+00 0 0 0
33 1 2.0549334625312920e+01 -4.3117885335991115e+00 -1.0774481449427091e+00 0 0 0
34 1 2.1868144709434862e+01 -2.9866064721566903e+00 3.9998186488872656e-01 0 0 0
35 1 2.0482064334385587e+01 -1.6283022883482017e+00 1.7250917564921597e+00 0 0 0
3 1 2.6009825049645013e+01 -1.6523121856843463e+00 1.5316154787690071e+00 -1 0 0
37 1 2.3360815240187538e+01 -4.3779009627746115e+00 1.6402289277179058e+00 0 0 0
21 1 1.2456324003561660e+01 -4.3881123355554337e+00 1.5769905910728366e+00 0 0 0
45 1 1.7100178543700937e+00 1.0005210054277602e+00 1.6176992915574655e+00 0 0 0
8 1 3.0787691647459967e+00 -4.2451310957345323e-01 2.8837261952250587e-01 0 0 0
53 1 7.0207296257669789e+00 9.3631530484077075e-01 1.5410260428077598e+00 0 0 0
16 1 8.5210428573992161e+00 -2.5827155410499292e-01 2.5130254264790469e-01 0 0 0
57 1 9.8841362971042503e+00 1.0287485384704866e+00 -1.0678486869375028e+00 0 0 0
61 1 1.2475608372819819e+01 8.9052949963126649e-01 1.6088951915297653e+00 0 0 0
24 1 1.3847335051589397e+01 -4.6823567186740334e-01 3.8745119671747280e-01 0 0 0
65 1 1.5185183758409536e+01 1.0524465827272704e+00 -1.0492482518309274e+00 0 0 0
69 1 1.7915496496142083e+01 1.0519280820920256e+00 1.6754698909721089e+00 0 0 0
32 1 1.9229056309367049e+01 -3.2026347781956027e-01 2.4207028345821935e-01 0 0 0
73 1 2.0607554396936131e+01 1.0252845130450774e+00 -9.4318932619138141e-01 0 0 0
1809 1 4.2495190463676211e+00 2.2731397394585152e+01 9.7345876300760299e+00 0 0 0
77 1 2.3433639943951643e+01 1.1800534495794397e+00 1.5671206425208581e+00 0 0 0
40 1 2.4782857647426912e+01 -2.7600327692262011e-01 2.0286375208984900e-01 0 0 0
42 1 3.5219796075855564e-01 2.3067110011102301e+00 3.8564687699082434e-01 0 0 0
43 1 -1.0358756268112974e+00 3.7459786717184800e+00 1.7158220434026719e+00 0 0 0
51 1 4.4115833345029412e+00 3.5965997388260025e+00 1.6331509945506706e+00 0 0 0
50 1 5.7981733392096935e+00 2.3749595331088962e+00 2.3755929111076773e-01 0 0 0
1021 1 1.2524545651302580e+01 2.2768999559853381e+01 7.1143371086345706e+00 0 0 0
59 1 9.6758325003028798e+00 3.7934727569215791e+00 1.5743268625235955e+00 0 0 0
58 1 1.1190872009146128e+01 2.3847926340224381e+00 3.0751839748598897e-01 0 0 0
63 1 1.2713106342478314e+01 3.8080118710797564e+00 -9.8938154691883262e-01 0 0 0
67 1 1.5149105724060995e+01 3.7074626826052532e+00 1.6633134471084390e+00 0 0 0
66 1 1.6570499395237579e+01 2.4428126191401263e+00 2.9017895241187536e-01 0 0 0
71 1 1.7934294739484361e+01 3.7510408683646950e+00 -1.0484530033268806e+00 0 0 0
74 1 2.1962532793788217e+01 2.4759536280405001e+00 2.3616581132683240e-01 0 0 0
75 1 2.0682197350254821e+01 3.8442087419793105e+00 1.6520509223066815e+00 0 0 0
217 1 9.6090418319712114e+00 2.2711471578510590e+01 -1.0488047450384559e+00 0 0 0
85 1 1.6235779982333021e+00 6.3617992316774599e+00 1.6413117445930083e+00 0 0 0
48 1 3.0012497493284949e+00 4.9927653757755195e+00 2.9372502983719301e-01 0 0 0
89 1 4.3222695803011746e+00 6.3860099847707117e+00 -1.0642894621505552e+00 0 0 0
93 1 6.9963828179883665e+00 6.3853107588953542e+00 1.6408794774063395e+00 0 0 0
56 1 8.3106787728285259e+00 5.0877458503666837e+00 1.6790562901689535e-01 0 0 0
64 1 1.3909202893122080e+01 5.2202523415710624e+00 3.4614792514926107e-01 0 0 0
101 1 1.2408439597254295e+01 6.3696095733770699e+00 1.7821961064341698e+00 0 0 0
105 1 1.5274215441405950e+01 6.4925085592009406e+00 -1.0880926583198955e+00 0 0 0
72 1 1.9409900331978665e+01 5.1108030515630176e+00 2.1839243323224997e-01 0 0 0
109 1 1.7851065786305224e+01 6.2929178970405930e+00 1.5560068748379623e+00 0 0 0
1775 1 7.0905195617116039e+00 2.0168798005036560e+01 9.8038942901896391e+00 0 0 0
80 1 2.4759142544566000e+01 5.0000173090417581e+00 2.6900355352162109e-01 0 0 0
117 1 2.3342060890770874e+01 6.4882103258435881e+00 1.5803914879636489e+00 0 0 0
82 1 3.6710996626733972e-01 7.8117201050398073e+00 1.8185358005029667e-01 0 0 0
91 1 4.3077479989476757e+00 9.2550265563463263e+00 1.6690076364485305e+00 0 0 0
88 1 3.0062297902627813e+00 1.0506574743556625e+01 2.3834276236735782e-01 0 0 0
90 1 5.6067570716373245e+00 7.6790517661818800e+00 3.0422783587809960e-01 0 0 0
95 1 6.9675229716806744e+00 9.1969089505525563e+00 -1.0564010680634754e+00 0 0 0
96 1 8.3614049614373087e+00 1.0453980668007761e+01 3.9136697000542586e-01 0 0 0
99 1 9.8151818147978123e+00 9.0940816251438008e+00 1.6728148864248351e+00 0 0 0
98 1 1.1245322436539517e+01 7.7904671640704635e+00 2.4336013356870442e-01 0 0 0
1768 1 2.9738251910264828e+00 2.1412296752519623e+01 1.1235020374347810e+01 0 0 0
104 1 1.3850509439477079e+01 1.0478402453421321e+01 2.6258407568547026e-01 0 0 0
106 1 1.6759464003388249e+01 7.8243875620131433e+00 2.0439456352714433e-01 0 0 0
107 1 1.5307605475678006e+01 9.1329534838304873e+00 1.5902660124123722e+00 0 0 0
1767 1 1.5767129964158149e+00 2.0053438557632600e+01 9.8458265704214263e+00 0 0 0
112 1 1.9265923686677656e+01 1.0525511735872660e+01 2.5928905879235492e-01 0 0 0
114 1 2.2083029288903635e+01 7.9906760920330511e+00 2.9025029320918944e-01 0 0 0
115 1 2.0605766112181321e+01 9.1703046484627446e+00 1.7848961439972779e+00 0 0 0
83 1 -9.7918124470631085e-01 9.1203253736114061e+00 1.5573499589919697e+00 0 0 0
1761 1 2.5946158890263739e+01 1.7365581216206046e+01 9.7503495697858984e+00 -1 0 0
120 1 2.4882866966545627e+01 1.0612111145784343e+01 3.9066167895393705e-01 0 0 0
121 1 -1.0400083481755993e+00 1.2058061418231338e+01 -1.0326789148816440e+00 0 0 0
125 1 1.5815370300257050e+00 1.1766685211353902e+01 1.5421196976653930e+00 0 0 0
122 1 3.8893859219762872e-01 1.3397984410390990e+01 4.1653919832253317e-01 0 0 0
1793 1 2.0737309587794858e+01 1.7307600004753343e+01 9.6871978016527720e+00 0 0 0
133 1 6.9066190995248675e+00 1.1810482348137452e+01 1.6213434720785371e+00 0 0 0
130 1 5.7185415101915273e+00 1.3238707923999137e+01 1.8094604312852436e-01 0 0 0
137 1 9.7523851119552578e+00 1.1658266731356138e+01 -1.0784780390122695e+00 0 0 0
141 1 1.2575866390632500e+01 1.1793895813260846e+01 1.6986768653566668e+00 0 0 0
138 1 1.1198626971474138e+01 1.3121787352501427e+01 3.9221071798706253e-01 0 0 0
145 1 1.5154393022201903e+01 1.1829830839923625e+01 -1.0859717343915245e+00 0 0 0
146 1 1.6360438302671994e+01 1.3317080045262966e+01 3.8088018460538586e-01 0 0 0
149 1 1.7865163319028277e+01 1.1951686392679937e+01 1.5289832860589168e+00 0 0 0
153 1 2.0716580976098559e+01 1.1931907848292967e+01 -1.0530689015413393e+00 0 0 0
154 1 2.2107029091089668e+01 1.3360323659991410e+01 3.6520771652055378e-01 0 0 0
157 1 2.3365963871761156e+01 1.1949491043438902e+01 1.7055566382866436e+00 0 0 0
123 1 2.6080262631119140e+01 1.4732245033079170e+01 1.7203230179018212e+00 -1 0 0
1794 1 2.2077505682483491e+01 1.8599066242204547e+01 1.1170690009329352e+01 0 0 0
131 1 4.3475785067971904e+00 1.4520954607984718e+01 1.7014062569020105e+00 0 0 0
128 1 3.0149125087366344e+00 1.5967501375281834e+01 2.3930854338105254e-01 0 0 0
1785 1 1.5395000308316096e+01 1.7281273686587841e+01 1.0000615286274003e+01 0 0 0
139 1 9.7756270861921095e+00 1.4476874842786797e+01 1.7093456226821802e+00 0 0 0
136 1 8.3744331161283228e+00 1.5907572679032558e+01 3.3606294803289299e-01 0 0 0
144 1 1.3745452920676243e+01 1.5844251461727829e+01 4.3971152627960952e-01 0 0 0
147 1 1.5089178217456940e+01 1.4662702522046100e+01 1.8149677393244068e+00 0 0 0
152 1 1.9212237677723518e+01 1.6041715217411308e+01 2.9197282740591052e-01 0 0 0
155 1 2.0543851514907157e+01 1.4743935456070592e+01 1.5993700913903623e+00 0 0 0
159 1 2.3432888613634468e+01 1.4705749712687870e+01 -1.0850067575424227e+00 0 0 0
160 1 2.4792548102283682e+01 1.6057944605423636e+01 1.1343681489269691e-01 0 0 0
162 1 2.5398961937272002e-01 1.8779121920976124e+01 3.0754873461304294e-01 0 0 0
165 1 1.5331923144649222e+00 1.7314882693886855e+01 1.6117444439960549e+00 0 0 0
170 1 5.6188706144115335e+00 1.8606515111877069e+01 4.4087923711174976e-01 0 0 0
173 1 7.0964508919201803e+00 1.7218283240951497e+01 1.6504415771103127e+00 0 0 0
177 1 9.8877819928283142e+00 1.7422353637907726e+01 -1.0023903613976739e+00 0 0 0
178 1 1.1216566685153868e+01 1.8809161907442672e+01 4.0620871255798580e-01 0 0 0
181 1 1.2486242350023977e+01 1.7237749350615605e+01 1.8351149806809690e+00 0 0 0
185 1 1.5165934684894466e+01 1.7398711703111513e+01 -9.6797309413415122e-01 0 0 0
186 1 1.6479268990099971e+01 1.8718972545327450e+01 3.9606284197486186e-01 0 0 0
189 1 1.7908909403861117e+01 1.7472460378770389e+01 1.7121305653737129e+00 0 0 0
1786 1 1.6689193128320106e+01 1.8841391285517716e+01 1.1204177294824659e+01 0 0 0
194 1 2.1953752410681876e+01 1.8592410715209045e+01 3.4581251156325643e-01 0 0 0
197 1 2.3515393155146718e+01 1.7297873735728551e+01 1.5259228879157665e+00 0 0 0
163 1 -1.0745438123268893e+00 2.0234172537451876e+01 1.4848236816047773e+00 0 0 0
205 1 1.6829585983124840e+00 2.2766691814655818e+01 1.6407729532531250e+00 0 0 0
171 1 4.1697606851031397e+00 1.9940018833025615e+01 1.6555025676585866e+00 0 0 0
168 1 3.0523295235996826e+00 2.1428916747861436e+01 2.1804505985798536e-01 0 0 0
1800 1 2.4723218300213610e+01 2.1483167918571883e+01 1.1041072501712456e+01 0 0 0
176 1 8.2916667227202971e+00 2.1291613694722773e+01 2.4089902015064199e-01 0 0 0
179 1 9.6955480066238575e+00 2.0042246083118158e+01 1.7142366696117317e+00 0 0 0
183 1 1.2455544741264196e+01 2.0075871900215276e+01 -1.0083639636935648e+00 0 0 0
184 1 1.3731614531188180e+01 2.1445210398343434e+01 2.9275205120658188e-01 0 0 0
1795 1 2.0745474694442006e+01 1.9992909915584054e+01 1.2384956592448679e+01 0 0 0
187 1 1.5153136111510292e+01 2.0179422193024198e+01 1.6952282298986534e+00 0 0 0
191 1 1.7816797050445548e+01 2.0129103951992715e+01 -1.0167500646099246e+00 0 0 0
192 1 1.9425399965848257e+01 2.1339822266079185e+01 2.7872357201060316e-01 0 0 0
195 1 2.0708631501906932e+01 2.0099478713013038e+01 1.6889125973149597e+00 0 0 0
199 1 2.3243042496088965e+01 2.0060486617832552e+01 -9.5646866415714538e-01 0 0 0
200 1 2.4595195157315217e+01 2.1464088419754923e+01 2.2321183522908528e-01 0 0 0
1791 1 1.7866630286893074e+01 2.0129601232199686e+01 9.7827773875021400e+00 0 0 0
807 1 1.5688006583523773e+00 -1.7516121739768145e+00 4.2303625621474819e+00 0 0 0
809 1 4.3671813744983004e+00 -4.4019812745942799e+00 4.2907434302229444e+00 0 0 0
6 1 3.0082994545783333e+00 -3.0391782029325518e+00 2.8319547048853804e+00 0 0 0
815 1 7.0427173100119900e+00 -1.7225387872909188e+00 4.3359427861989221e+00 0 0 0
810 1 5.6504089599670548e+00 -3.0903383195000300e+00 5.7196149253297710e+00 0 0 0
14 1 8.3308985230495392e+00 -3.0902918151389813e+00 2.9431401912012967e+00 0 0 0
1792 1 1.9282899677662421e+01 2.1518989180405462e+01 1.1080771467642405e+01 0 0 0
22 1 1.3886814808544621e+01 -3.1008643535872840e+00 3.0086091957459287e+00 0 0 0
823 1 1.2539741922609794e+01 -1.9028075703191136e+00 4.3821282309997693e+00 0 0 0
831 1 1.7886299741122190e+01 -1.7035403327690422e+00 4.3353586517675451e+00 0 0 0
30 1 1.9254625787686923e+01 -3.1884530626886631e+00 3.0848584110242565e+00 0 0 0
1778 1 1.1043379848172403e+01 1.9052716137263104e+01 1.1088228849394385e+01 0 0 0
38 1 2.4785856906567588e+01 -2.9469186452376164e+00 2.9720151473729670e+00 0 0 0
839 1 2.3393485697884973e+01 -1.6719182823378951e+00 4.2749209130802850e+00 0 0 0
841 1 2.6086352067884302e+01 9.8676450961495188e-01 4.2445205682859921e+00 -1 0 0
4 1 1.8799525604103284e-01 -3.9186598553266516e-01 2.9136438216974221e+00 0 0 0
849 1 4.2701262699714011e+00 1.0629362019110704e+00 4.3480695678642203e+00 0 0 0
808 1 3.0375531451256861e+00 -3.8745315776235884e-01 5.6030598278236825e+00 0 0 0
12 1 5.7519987960603984e+00 -3.8460570003213579e-01 2.9891910507930839e+00 0 0 0
857 1 9.6095576844160604e+00 9.2641953159404189e-01 4.3228633645762082e+00 0 0 0
20 1 1.1104662019050343e+01 -4.9326587688049428e-01 3.0491383364136468e+00 0 0 0
865 1 1.5203950113906581e+01 1.1181438914198685e+00 4.2544099244001998e+00 0 0 0
28 1 1.6571919685799219e+01 -3.2948525104345505e-01 3.0401355228646390e+00 0 0 0
873 1 2.0646218546927784e+01 1.1248235462373519e+00 4.1766951191159221e+00 0 0 0
36 1 2.2063580523779564e+01 -2.2698877556355318e-01 2.9067510559082104e+00 0 0 0
847 1 1.5919066726615727e+00 3.7168836969355543e+00 4.4018920951118794e+00 0 0 0
46 1 2.9642465557066080e+00 2.4699103728720901e+00 3.0350905999691191e+00 0 0 0
855 1 7.0042879090011025e+00 3.7824237371513427e+00 4.3034069704056641e+00 0 0 0
54 1 8.2882446453659213e+00 2.3596138125355712e+00 2.9894411128974072e+00 0 0 0
62 1 1.3685365191717729e+01 2.3816129833220074e+00 2.9836526926505846e+00 0 0 0
863 1 1.2205249907035823e+01 3.7147339900674599e+00 4.2054994368977843e+00 0 0 0
871 1 1.7983187832982221e+01 3.8386350505011286e+00 4.4124542995190321e+00 0 0 0
70 1 1.9253815619125103e+01 2.4882096473137492e+00 2.9753675507097586e+00 0 0 0
874 1 2.1993696862249283e+01 2.4242572659680079e+00 5.5924765340444313e+00 0 0 0
78 1 2.4774139591625090e+01 2.4105230793018944e+00 3.0163349188504429e+00 0 0 0
879 1 2.3442833050859470e+01 3.8396926073126965e+00 4.3188744943528876e+00 0 0 0
44 1 2.5434144571612122e-01 5.1369863367096755e+00 3.1501603104112723e+00 0 0 0
889 1 4.2953991870413271e+00 6.5011163027092822e+00 4.4136620810750165e+00 0 0 0
52 1 5.6601779949606588e+00 5.0827892347590202e+00 3.0002074650199724e+00 0 0 0
897 1 9.6367250573655916e+00 6.5577543496213773e+00 4.4265625908344752e+00 0 0 0
60 1 1.0832429427691199e+01 5.1797803412457570e+00 3.0918498714358611e+00 0 0 0
68 1 1.6570732232670409e+01 5.0032632348706834e+00 3.1018281086511337e+00 0 0 0
905 1 1.5139818436284108e+01 6.3669130487585344e+00 4.2630053594973161e+00 0 0 0
76 1 2.2029106267318735e+01 5.2135605467045165e+00 2.9518977000066657e+00 0 0 0
913 1 2.0669973271677538e+01 6.4344765890475228e+00 4.3763288044921991e+00 0 0 0
881 1 -1.0749505756272484e+00 6.5924692342804061e+00 4.4337566149437890e+00 0 0 0
84 1 2.6618553469841488e-01 1.0588048414939669e+01 2.9319962058466227e+00 0 0 0
887 1 1.7223115979280215e+00 9.2174381373223788e+00 4.2583513900876211e+00 0 0 0
86 1 2.9190093098901135e+00 7.7458907070158709e+00 2.8620685932387699e+00 0 0 0
92 1 5.6308998044777621e+00 1.0523405802156468e+01 3.1402409927369206e+00 0 0 0
895 1 7.1012776248428082e+00 9.1554199231106441e+00 4.4697923312601855e+00 0 0 0
890 1 5.6457385999258518e+00 7.8633794107640913e+00 5.8786694049503216e+00 0 0 0
94 1 8.3224946301717484e+00 7.8533175047183130e+00 3.0189416707170751e+00 0 0 0
102 1 1.3851757139217677e+01 7.8236521452060366e+00 2.9597843077228423e+00 0 0 0
100 1 1.1235049328046525e+01 1.0647258083552543e+01 3.0233135792871670e+00 0 0 0
903 1 1.2543293372714791e+01 9.2248913364669178e+00 4.3340582812266017e+00 0 0 0
108 1 1.6548656769632881e+01 1.0504153118883364e+01 2.8952123359331359e+00 0 0 0
110 1 1.9296531435786370e+01 7.6409561674800797e+00 2.9403309592243114e+00 0 0 0
911 1 1.7961281775716696e+01 9.1632181827387722e+00 4.2905826922701635e+00 0 0 0
116 1 2.1924550802908250e+01 1.0614876294508239e+01 3.0829034787948624e+00 0 0 0
118 1 2.4743505746480530e+01 7.8831274439298928e+00 2.8614332403815057e+00 0 0 0
919 1 2.3332445556317374e+01 9.2221943504677029e+00 4.4355353590464981e+00 0 0 0
922 1 1.6454016412239886e-01 1.3323366466357355e+01 5.6830804457097264e+00 0 0 0
929 1 4.3793595053254037e+00 1.1774625965573318e+01 4.5115277678781087e+00 0 0 0
126 1 2.9483125499820115e+00 1.3122783325242114e+01 3.0022968493772062e+00 0 0 0
930 1 5.8029159783451219e+00 1.3241753911985827e+01 5.7496146748599850e+00 0 0 0
896 1 8.5272205073003757e+00 1.0369200398976748e+01 5.8327303228595957e+00 0 0 0
937 1 9.7802457137059307e+00 1.1986587671999702e+01 4.5597985740273517e+00 0 0 0
134 1 8.4252402129022368e+00 1.3184397389578194e+01 3.0686986769495377e+00 0 0 0
142 1 1.3767077287747684e+01 1.3176995901769180e+01 3.2466251166184041e+00 0 0 0
945 1 1.5233781417894118e+01 1.1810395402011544e+01 4.4755342393528128e+00 0 0 0
946 1 1.6675479413489597e+01 1.3314430543934522e+01 5.7858659265831642e+00 0 0 0
150 1 1.9203506570393245e+01 1.3356008384810687e+01 2.9723795175396579e+00 0 0 0
953 1 2.0521164437290309e+01 1.1940369541044552e+01 4.4398539793318079e+00 0 0 0
954 1 2.1960861734715984e+01 1.3258256081049348e+01 5.8124748921408944e+00 0 0 0
921 1 2.6099577698566431e+01 1.1888403812073070e+01 4.2657099364656075e+00 -1 0 0
158 1 2.4660484187451871e+01 1.3248599753103205e+01 3.0221796066663855e+00 0 0 0
927 1 1.7509547541073016e+00 1.4415105021883488e+01 4.3553000576704326e+00 0 0 0
124 1 3.4371520724201066e-01 1.5970949264056095e+01 3.0497212804638871e+00 0 0 0
935 1 7.1130157586297882e+00 1.4580416537513802e+01 4.4095885226499281e+00 0 0 0
132 1 5.7406323134765280e+00 1.5828495894559678e+01 3.0713241016021322e+00 0 0 0
943 1 1.2458292115596779e+01 1.4684701601411422e+01 4.5675070396215371e+00 0 0 0
140 1 1.1024991427942117e+01 1.5956491223942834e+01 3.2185415055399376e+00 0 0 0
944 1 1.3810347943874870e+01 1.6073751155822844e+01 5.9623589297676549e+00 0 0 0
148 1 1.6483715339469828e+01 1.5981476093343719e+01 3.1187912110838982e+00 0 0 0
951 1 1.7983359884969737e+01 1.4732105741554776e+01 4.4768473616753557e+00 0 0 0
952 1 1.9436218444995369e+01 1.6104374851155761e+01 5.7481330865912463e+00 0 0 0
156 1 2.2086796235913376e+01 1.5965732992102138e+01 2.9079367429988068e+00 0 0 0
959 1 2.3311219664456377e+01 1.4627935225682572e+01 4.3274004969799575e+00 0 0 0
960 1 2.4730858578253748e+01 1.6108044827311016e+01 5.5868906865570525e+00 0 0 0
961 1 -9.4052181987238970e-01 1.7269396078140709e+01 4.3801914496313357e+00 0 0 0
969 1 4.4033381308858708e+00 1.7185743890662046e+01 4.3511555281983743e+00 0 0 0
166 1 2.9509772015052524e+00 1.8575258085346206e+01 2.9891578053253443e+00 0 0 0
174 1 8.3998742920122833e+00 1.8609528268053200e+01 3.0265981916563831e+00 0 0 0
977 1 9.7466133978862057e+00 1.7457625828052642e+01 4.5788419013914687e+00 0 0 0
182 1 1.3999181253522714e+01 1.8729117195557549e+01 3.0305597450445911e+00 0 0 0
985 1 1.5209202192055530e+01 1.7451429295004505e+01 4.6101692223623818e+00 0 0 0
986 1 1.6629272209173600e+01 1.8765824081631386e+01 5.7762663415991478e+00 0 0 0
190 1 1.9395337072617711e+01 1.8655255283907223e+01 2.9806164246865805e+00 0 0 0
993 1 2.0806735979973677e+01 1.7314686443736051e+01 4.2475940486364925e+00 0 0 0
198 1 2.4956917797207922e+01 1.8708428613638308e+01 3.0450860960208277e+00 0 0 0
164 1 2.7545302962953561e-01 2.1370899145428556e+01 2.8898273892551507e+00 0 0 0
967 1 1.6058355401407465e+00 2.0049114731440802e+01 4.2432886503518530e+00 0 0 0
1783 1 1.2451518417232018e+01 2.0246475656122442e+01 9.6928423810977264e+00 0 0 0
968 1 2.9325392087330333e+00 2.1300579973078467e+01 5.7131524697085005e+00 0 0 0
1009 1 4.3468892863330435e+00 2.2676239398998597e+01 4.2853981782040140e+00 0 0 0
172 1 5.6854356326745128e+00 2.1340475150020435e+01 2.8518811932978037e+00 0 0 0
975 1 7.1143706413103196e+00 1.9998425695464622e+01 4.3940237725112405e+00 0 0 0
1784 1 1.3824139022016489e+01 2.1530611913663943e+01 1.1148197607655398e+01 0 0 0
180 1 1.1055212293217249e+01 2.1428020970878400e+01 3.0703325717345806e+00 0 0 0
983 1 1.2379636409536534e+01 2.0047276685373056e+01 4.3586010653898839e+00 0 0 0
984 1 1.3790694204181692e+01 2.1420186800955953e+01 5.6527106755289473e+00 0 0 0
188 1 1.6686208063585131e+01 2.1508076794714750e+01 3.0823447423744668e+00 0 0 0
991 1 1.8086263358820787e+01 2.0124086797009255e+01 4.3194839073631668e+00 0 0 0
196 1 2.1980822206736679e+01 2.1415608573791470e+01 3.0663585957085639e+00 0 0 0
999 1 2.3468929765896103e+01 2.0018611136212247e+01 4.3081175813070809e+00 0 0 0
802 1 1.6344074097465283e-01 -3.0855355892313221e+00 5.7417534306923113e+00 0 0 0
803 1 2.6037324568986023e+01 -1.8042468532155493e+00 7.1031564778261913e+00 -1 0 0
805 1 1.6158399037366717e+00 -4.4017511336780668e+00 7.1763308788897193e+00 0 0 0
811 1 4.3349175991790529e+00 -1.7820028277493503e+00 7.0398387931347868e+00 0 0 0
806 1 3.0532421588262051e+00 -2.9932723957823226e+00 8.5807303441970575e+00 0 0 0
813 1 7.0439652206795982e+00 -4.3625990262100753e+00 7.1007426017530326e+00 0 0 0
814 1 8.5294897476525229e+00 -3.1235760869199432e+00 8.3665415854687328e+00 0 0 0
819 1 9.7959460411767960e+00 -1.6849504236313051e+00 7.0849302916552928e+00 0 0 0
818 1 1.1110980834489361e+01 -3.1531065734301733e+00 5.7887856822615369e+00 0 0 0
1776 1 8.3872455390341774e+00 2.1553383251441751e+01 1.1201571213222557e+01 0 0 0
822 1 1.3740867900087286e+01 -3.0773593999171283e+00 8.4518390205324412e+00 0 0 0
826 1 1.6540550132721236e+01 -3.0128930455362624e+00 5.7527719037126408e+00 0 0 0
827 1 1.5105202108631001e+01 -1.7650322373475487e+00 7.1331000525694055e+00 0 0 0
830 1 1.9358931933998896e+01 -3.0016877863107183e+00 8.4618157494771236e+00 0 0 0
834 1 2.1987807386061270e+01 -3.1923211456533851e+00 5.6659454307843982e+00 0 0 0
835 1 2.0653261428879034e+01 -1.5869248911064189e+00 7.0401379943647084e+00 0 0 0
838 1 2.4750463836925565e+01 -3.1338533926355248e+00 8.4536106801662410e+00 0 0 0
804 1 2.9056148771287010e-01 -3.4594885664751107e-01 8.4558062639479932e+00 0 0 0
845 1 1.5774933707601269e+00 9.0330438837356131e-01 7.0349727494035923e+00 0 0 0
812 1 5.6123362153487193e+00 -2.8676149280339630e-01 8.3120616012722586e+00 0 0 0
853 1 7.0316868133914179e+00 1.1548828622474772e+00 6.8463394361756009e+00 0 0 0
816 1 8.3427613101785152e+00 -3.7635657010877738e-01 5.6899047106632850e+00 0 0 0
820 1 1.1135915973006457e+01 -4.2266284300707130e-01 8.4880506908511091e+00 0 0 0
861 1 1.2415615952559044e+01 9.8101948211505152e-01 7.0924900562125224e+00 0 0 0
824 1 1.3784172997605744e+01 -4.2842579540449377e-01 5.7203696070774841e+00 0 0 0
828 1 1.6598050334486683e+01 -4.8749042733789372e-01 8.3591371600085029e+00 0 0 0
832 1 1.9359550810979211e+01 -3.8968757463857390e-01 5.5128704530614279e+00 0 0 0
869 1 1.7934342774076114e+01 9.1236724919729895e-01 6.9319658853997090e+00 0 0 0
836 1 2.2093813412680884e+01 -2.4896664372580035e-01 8.3801051386865950e+00 0 0 0
840 1 2.4789785327597468e+01 -3.4347484409812895e-01 5.6718980539017290e+00 0 0 0
877 1 2.3442047895579019e+01 1.1503089633797978e+00 6.8880258686706686e+00 0 0 0
842 1 2.5398295354138550e-01 2.3956349098514460e+00 5.6640128514988044e+00 0 0 0
843 1 -1.0340723087779700e+00 3.6954796202266849e+00 6.9985102912323498e+00 0 0 0
851 1 4.3164705523002080e+00 3.7304936627697951e+00 7.1739940506904496e+00 0 0 0
846 1 2.9395358109691632e+00 2.2758119920925406e+00 8.3017136818418908e+00 0 0 0
850 1 5.6391124493962561e+00 2.4453274908933489e+00 5.7752935645415011e+00 0 0 0
854 1 8.3151771113342452e+00 2.3844131228592560e+00 8.3823831463320939e+00 0 0 0
859 1 9.6816512154652017e+00 3.8230574539637425e+00 7.1411121408162330e+00 0 0 0
858 1 1.1018251676676391e+01 2.2754268753429314e+00 5.6867836882652902e+00 0 0 0
862 1 1.3843282348329549e+01 2.2976975390378969e+00 8.3650936537231573e+00 0 0 0
866 1 1.6522139572639915e+01 2.5071800385177769e+00 5.7212346086473262e+00 0 0 0
867 1 1.5154359449082555e+01 3.7612064931926810e+00 7.0460847919213059e+00 0 0 0
870 1 1.9283317926934110e+01 2.4161971162885836e+00 8.2563336584480318e+00 0 0 0
875 1 2.0898437594512000e+01 3.7565674625584515e+00 7.1274510998230802e+00 0 0 0
878 1 2.4894045466556424e+01 2.3371932743620940e+00 8.4564396011765020e+00 0 0 0
844 1 2.1248240899928622e-01 5.1466896236427386e+00 8.3014638742432645e+00 0 0 0
885 1 1.7195126977400015e+00 6.4840592722204109e+00 6.9918684975932042e+00 0 0 0
848 1 3.0135885947208854e+00 5.0818131322388354e+00 5.6252275348626251e+00 0 0 0
852 1 5.5986395134567806e+00 5.1580890025136137e+00 8.5499548785078776e+00 0 0 0
893 1 7.0253171663723002e+00 6.3997048176873523e+00 7.2090146234633412e+00 0 0 0
856 1 8.3754046543054113e+00 5.0178969422105570e+00 5.7206504294806972e+00 0 0 0
864 1 1.3673281044366501e+01 5.0876506693734171e+00 5.5219438630745765e+00 0 0 0
860 1 1.1205102541465569e+01 5.0492708004908726e+00 8.4507800957827630e+00 0 0 0
901 1 1.2465611045922618e+01 6.5549017919333750e+00 7.0348055880670488e+00 0 0 0
868 1 1.6545777900687007e+01 5.2309087271002372e+00 8.3699916878603382e+00 0 0 0
872 1 1.9315987403809370e+01 5.0779272060932268e+00 5.8110716678908076e+00 0 0 0
909 1 1.7885410901712284e+01 6.4957041216328681e+00 6.9993504102140447e+00 0 0 0
876 1 2.2140777639399261e+01 5.0557535562312577e+00 8.6848092432966251e+00 0 0 0
880 1 2.4741156922392271e+01 5.1271165484277859e+00 5.7352832242077296e+00 0 0 0
917 1 2.3461888847886183e+01 6.4159655682915711e+00 7.2121307583126253e+00 0 0 0
882 1 4.4926189247092096e-01 7.9199700146797927e+00 5.7204677215641020e+00 0 0 0
883 1 -9.8537249129249127e-01 9.2110918608355448e+00 7.0525472077516946e+00 0 0 0
884 1 2.4512127082683663e-01 1.0563749003075445e+01 8.3980956855491300e+00 0 0 0
888 1 2.9242214472696837e+00 1.0465563581123954e+01 5.8644760796822712e+00 0 0 0
886 1 2.8550531481371548e+00 7.9282308588172237e+00 8.4545646179243796e+00 0 0 0
891 1 4.3069711606295575e+00 9.3071947116071652e+00 7.3629090958596732e+00 0 0 0
892 1 5.7663516057560980e+00 1.0476026474562822e+01 8.7261729329314139e+00 0 0 0
898 1 1.1078527893824765e+01 7.8668873370266876e+00 5.5321740187302222e+00 0 0 0
894 1 8.5097830381863560e+00 7.6924614026722988e+00 8.3734723221936420e+00 0 0 0
899 1 9.9231685173339148e+00 9.0610693154689823e+00 7.1080356268819793e+00 0 0 0
904 1 1.3884471255172118e+01 1.0640482326779129e+01 5.7492370234649375e+00 0 0 0
902 1 1.3926758733192282e+01 7.8340899535883608e+00 8.2866285006883622e+00 0 0 0
906 1 1.6450506833947287e+01 7.7953679790669055e+00 5.6310542359109483e+00 0 0 0
907 1 1.5326752228841025e+01 9.2772311230867874e+00 7.0448008124648558e+00 0 0 0
908 1 1.6625595440263663e+01 1.0645030090009733e+01 8.4889890723910710e+00 0 0 0
910 1 1.9302519832438762e+01 7.7840142989349772e+00 8.4345736752766243e+00 0 0 0
914 1 2.2034679567154846e+01 7.7597266554121562e+00 5.7294357094377713e+00 0 0 0
915 1 2.0550343477141677e+01 9.0878672052204585e+00 7.1498855985464873e+00 0 0 0
916 1 2.2069313641159404e+01 1.0389909608791347e+01 8.5583503488451704e+00 0 0 0
920 1 2.4731166518311035e+01 1.0538443840524334e+01 5.6509167918034020e+00 0 0 0
918 1 2.4842172786136643e+01 7.7773635961468708e+00 8.4676134270505834e+00 0 0 0
925 1 1.6006914523304392e+00 1.1918796712363875e+01 7.0239128678812879e+00 0 0 0
926 1 3.0487934717612295e+00 1.3234021012270400e+01 8.4485398934050799e+00 0 0 0
933 1 7.1335562221306468e+00 1.1858286215120305e+01 7.2738254929279806e+00 0 0 0
934 1 8.5031268745880588e+00 1.3261508614958021e+01 8.6015375546870949e+00 0 0 0
938 1 1.1141873735982214e+01 1.3398697390145763e+01 5.9402502667875288e+00 0 0 0
900 1 1.1173024872842381e+01 1.0678580292974397e+01 8.4334881520888469e+00 0 0 0
941 1 1.2678763092038681e+01 1.2082913560039559e+01 7.0852352672578132e+00 0 0 0
942 1 1.3962361197183361e+01 1.3430392702574840e+01 8.4877985166687306e+00 0 0 0
912 1 1.9178521904451898e+01 1.0543588511548661e+01 5.7744734989904662e+00 0 0 0
949 1 1.7996741735319400e+01 1.2025618149589977e+01 7.2079046174256129e+00 0 0 0
950 1 1.9397043768229601e+01 1.3168704565253245e+01 8.6961914247645993e+00 0 0 0
957 1 2.3442306092863326e+01 1.1807118898066394e+01 7.2095603030673940e+00 0 0 0
958 1 2.4664937105532971e+01 1.3341083361494164e+01 8.5743028065484594e+00 0 0 0
924 1 2.7308498199696174e-01 1.6013003036284477e+01 8.4742946931224736e+00 0 0 0
928 1 3.0707429116219673e+00 1.5817201887498760e+01 5.7345843859559675e+00 0 0 0
931 1 4.4687468996442403e+00 1.4616146622512451e+01 7.1331319469391721e+00 0 0 0
932 1 5.7195130627522328e+00 1.6078959029674749e+01 8.5610643340212018e+00 0 0 0
936 1 8.3705838845637999e+00 1.6066724823397653e+01 5.7500246461904716e+00 0 0 0
939 1 9.7978140406671823e+00 1.4771406020260759e+01 7.2394325291636683e+00 0 0 0
940 1 1.1176053030976044e+01 1.6176548179407984e+01 8.5840375455073836e+00 0 0 0
947 1 1.5454370674574948e+01 1.4650596621698075e+01 7.1327631676244225e+00 0 0 0
948 1 1.6772712187661114e+01 1.5890460310333493e+01 8.5153927745481308e+00 0 0 0
955 1 2.0605855148324455e+01 1.4594793631291360e+01 7.2590763938621103e+00 0 0 0
956 1 2.2061820286857305e+01 1.5900472044300749e+01 8.4354993362104924e+00 0 0 0
923 1 2.5992765500008225e+01 1.4706257405694490e+01 7.0028994825256996e+00 -1 0 0
962 1 1.7689601679857281e-01 1.8773852425282186e+01 5.7264207070928093e+00 0 0 0
965 1 1.6140586210435961e+00 1.7331976382562878e+01 7.0860387950995358e+00 0 0 0
966 1 3.0284533005035352e+00 1.8634483469006273e+01 8.5629751168448855e+00 0 0 0
970 1 5.6659752715689633e+00 1.8575898768411918e+01 5.7052877770192083e+00 0 0 0
973 1 6.9582720914322707e+00 1.7457123942849968e+01 7.0858775784883790e+00 0 0 0
974 1 8.2094068582672239e+00 1.8738578836908601e+01 8.3376791079438632e+00 0 0 0
978 1 1.1153074001225459e+01 1.8705752239835796e+01 5.7459056748627377e+00 0 0 0
981 1 1.2547858684096633e+01 1.7507451843611356e+01 7.2314108010075664e+00 0 0 0
982 1 1.4047779757907570e+01 1.8798165022244266e+01 8.5819557913371352e+00 0 0 0