LAMMPS data file via write_data, version 30 Jul 2016, timestep = 25000

20000 atoms
1 atom types

-1.1032106980480609e+00 2.6103210698048223e+01 xlo xhi
-2.2044070444970856e+01 5.2204407044666198e+02 ylo yhi
-1.1005042151491615e+00 2.6100504215149023e+01 zlo zhi

Masses

1 28.0855

Atoms # atomic

2 1 3.1294102215183206e-01 -2.0607759430418692e+01 3.3104949653272620e-01 0 0 0
7 1 1.7145561587232661e+00 -1.9207816319893549e+01 2.6098602037879022e+01 0 0 -1
5 1 1.5824515162027142e+00 -2.1846815754427016e+01 1.8012830439946153e+00 0 0 0
1 1 2.6052958914495704e+01 -2.1893682709874579e+01 -1.0169733592703543e+00 -1 0 0
11 1 4.4294931004471252e+00 -1.9274173970618893e+01 1.8935123636020745e+00 0 0 0
16277 1 2.3207566933901816e+01 1.0603000069052300e+01 2.3493533669805785e+01 0 0 0
10 1 5.7144925317688067e+00 -2.0632708192857098e+01 4.8074643784764914e-01 0 0 0
15 1 7.0994995608476419e+00 -1.9220753745177465e+01 -8.5724091340507536e-01 0 0 0
13 1 7.0683325498488578e+00 -2.1927699921637231e+01 1.7096536579281394e+00 0 0 0
19 1 9.7856509089362795e+00 -1.9237308809815723e+01 1.8907140511912366e+00 0 0 0
17 1 9.7816884223465728e+00 -2.1760499095298858e+01 -9.6539700120570793e-01 0 0 0
18 1 1.1161516797332386e+01 -2.0513269001862575e+01 4.4490306568616167e-01 0 0 0
21 1 1.2433056852680785e+01 -2.1867973466299663e+01 1.8456280662536764e+00 0 0 0
27 1 1.5145879104473581e+01 -1.9075387632526578e+01 1.8270433903993912e+00 0 0 0
26 1 1.6523743348368441e+01 -2.0479062772093396e+01 5.9406110411205204e-01 0 0 0
25 1 1.5259211574755296e+01 -2.1960524213943209e+01 -7.9949505845703928e-01 0 0 0
29 1 1.7894970979256527e+01 -2.1861136607066889e+01 1.8887656805758950e+00 0 0 0
34 1 2.1897361913822728e+01 -2.0579809565341570e+01 4.0122360765216092e-01 0 0 0
35 1 2.0719826286756742e+01 -1.9157202190317076e+01 1.8073444675784582e+00 0 0 0
3 1 -1.0871974524088230e+00 -1.9336692681162013e+01 1.8307431797788785e+00 0 0 0
37 1 2.3289769676365488e+01 -2.1879326196245454e+01 1.7906061152646608e+00 0 0 0
45 1 1.5383700457940783e+00 -1.6725187942950932e+01 1.8574435304556616e+00 0 0 0
41 1 2.5990166948337848e+01 -1.6596389834385782e+01 -8.4604261400887792e-01 -1 0 0
8 1 3.0398429483995644e+00 -1.7845389019394347e+01 4.8289828488488351e-01 0 0 0
49 1 4.3242501168340404e+00 -1.6526206073925657e+01 -9.2867627210935066e-01 0 0 0
53 1 6.9425035534101891e+00 -1.6450616609551677e+01 1.9383047597611984e+00 0 0 0
16 1 8.3820064279495625e+00 -1.7805419767465686e+01 5.8607266314941087e-01 0 0 0
57 1 9.7316727165457984e+00 -1.6461924473885684e+01 -8.1302332780607611e-01 0 0 0
24 1 1.3732974621671081e+01 -1.7914486115963296e+01 4.2520840859124975e-01 0 0 0
61 1 1.2543814595486770e+01 -1.6443095128384655e+01 1.7340042384614551e+00 0 0 0
65 1 1.5197506231941103e+01 -1.6518771892534090e+01 -8.2203354585369204e-01 0 0 0
69 1 1.7931636798563680e+01 -1.6508695843912520e+01 1.7814383193415413e+00 0 0 0
32 1 1.9271335456193931e+01 -1.7799214681888024e+01 4.8498164766175145e-01 0 0 0
40 1 2.4771059729526584e+01 -1.7881290769291191e+01 6.5334523062800653e-01 0 0 0
77 1 2.3302545998355356e+01 -1.6358900123844364e+01 1.8340922808089073e+00 0 0 0
42 1 2.8292684875310314e-01 -1.5293764701501633e+01 4.2723668072554766e-01 0 0 0
43 1 -1.0789075315957004e+00 -1.3857017062274110e+01 1.7709152588489929e+00 0 0 0
47 1 1.6223688472446320e+00 -1.3915178414024115e+01 -9.7719050107965999e-01 0 0 0
51 1 4.2791268626290107e+00 -1.3845702186726214e+01 1.8007274368925450e+00 0 0 0
50 1 5.7174101334960463e+00 -1.5079904309324945e+01 3.9404975514815965e-01 0 0 0
55 1 7.0867714390217671e+00 -1.3764293112441804e+01 -9.3543683776471620e-01 0 0 0
59 1 9.8342358044056759e+00 -1.3757546521605411e+01 1.8826162697466309e+00 0 0 0
58 1 1.1198790237249330e+01 -1.5017723921085114e+01 3.6122722255484740e-01 0 0 0
63 1 1.2492370825321391e+01 -1.3661369437265778e+01 -1.0751101275884962e+00 0 0 0
67 1 1.5262520099396918e+01 -1.3746038751806243e+01 1.6782503904978014e+00 0 0 0
66 1 1.6609624217530509e+01 -1.5193585875663498e+01 3.9725918668163041e-01 0 0 0
74 1 2.1902041270781872e+01 -1.5135855488620209e+01 3.8446637085966162e-01 0 0 0
75 1 2.0628067745675615e+01 -1.3765588277669632e+01 1.7989672353925918e+00 0 0 0
82 1 1.9705283083698877e-01 -9.7004757041573662e+00 6.3113726286261240e-01 0 0 0
85 1 1.5191534667821802e+00 -1.1177146612338909e+01 1.7927671549770663e+00 0 0 0
48 1 2.8988283584822971e+00 -1.2478621794971176e+01 3.5371162816069446e-01 0 0 0
90 1 5.5619013421380563e+00 -9.7151617286960672e+00 4.7107852719883225e-01 0 0 0
93 1 6.8811201962840354e+00 -1.1052277183091578e+01 1.7980812990938739e+00 0 0 0
56 1 8.4043264704195533e+00 -1.2318302446647088e+01 5.4361571375974793e-01 0 0 0
97 1 9.6508640983637939e+00 -1.1051602118924720e+01 -9.6798143056572739e-01 0 0 0
101 1 1.2367419679760793e+01 -1.1000559842826695e+01 1.7274009825129788e+00 0 0 0
64 1 1.3741422224717164e+01 -1.2382429428162364e+01 3.2527442531782214e-01 0 0 0
106 1 1.6472623905841381e+01 -9.7246575292287858e+00 3.7291374196617544e-01 0 0 0
72 1 1.9350200568241007e+01 -1.2559750194724964e+01 3.4407094998885568e-01 0 0 0
109 1 1.8062805404811577e+01 -1.0991819855800541e+01 1.6313214392134250e+00 0 0 0
114 1 2.2027342780919824e+01 -9.6971227456282918e+00 3.1688763442496826e-01 0 0 0
80 1 2.4659977372766058e+01 -1.2508091335347748e+01 5.3866155604811605e-01 0 0 0
117 1 2.3261923965044389e+01 -1.1076915424515672e+01 1.8342377280573277e+00 0 0 0
81 1 2.5923432748655515e+01 -1.1122089928711805e+01 -6.8005842676023986e-01 -1 0 0
87 1 1.5823755293650015e+00 -8.4032596869678589e+00 -8.5945776507793037e-01 0 0 0
91 1 4.1421465181763688e+00 -8.4958625182504957e+00 1.8237903917337359e+00 0 0 0
88 1 2.7925310160976560e+00 -6.9559264654982336e+00 4.2230917994876660e-01 0 0 0
95 1 6.8661042957278875e+00 -8.3888007623883194e+00 -9.6599179508688127e-01 0 0 0
96 1 8.2282052987330552e+00 -6.9932185651380010e+00 4.1596445638620438e-01 0 0 0
99 1 9.6800707728627025e+00 -8.2527091333538447e+00 1.8423103366520825e+00 0 0 0
98 1 1.0979312796701926e+01 -9.6960847018058516e+00 3.0021078882212970e-01 0 0 0
104 1 1.3720977134309530e+01 -6.9254317506455578e+00 4.5092726092108593e-01 0 0 0
103 1 1.2351229592837273e+01 -8.2468980335767430e+00 -8.4649959432085597e-01 0 0 0
107 1 1.5023587017039416e+01 -8.3038370789943592e+00 1.7178367189274861e+00 0 0 0
112 1 1.9098663194923127e+01 -6.8960847095004318e+00 3.5030297027634827e-01 0 0 0
115 1 2.0613795890994858e+01 -8.1136526798960897e+00 1.7730196654794703e+00 0 0 0
83 1 2.5962804095674059e+01 -8.3340590332749880e+00 1.8751119032104095e+00 -1 0 0
120 1 2.4679776907132165e+01 -6.9867028700750033e+00 4.0135395465798451e-01 0 0 0
122 1 -2.5618958923430801e-02 -4.2428065678493532e+00 5.8143000872947925e-01 0 0 0
125 1 1.3763843982026649e+00 -5.6393611535341641e+00 1.8284717904615140e+00 0 0 0
129 1 4.1782981267018018e+00 -5.6787041063719137e+00 -1.0189566309630025e+00 0 0 0
133 1 6.8892394258504641e+00 -5.6904481172099395e+00 1.7595232082950907e+00 0 0 0
130 1 5.5143709587007121e+00 -4.3297257696032716e+00 3.2808685121685222e-01 0 0 0
138 1 1.0844901388263875e+01 -4.3294836596697372e+00 4.6678081568463381e-01 0 0 0
141 1 1.2205314598663515e+01 -5.6300741711957514e+00 1.8009246449205749e+00 0 0 0
146 1 1.6459322894045059e+01 -4.3475938364297448e+00 3.7687613177358137e-01 0 0 0
149 1 1.7776230338388793e+01 -5.6100594024615980e+00 1.8149872817968138e+00 0 0 0
154 1 2.1923172699647623e+01 -4.4043164505371593e+00 3.8603734751355501e-01 0 0 0
153 1 2.0609037167616584e+01 -5.6593833407942711e+00 -9.7967572301618200e-01 0 0 0
157 1 2.3371267364255395e+01 -5.6797463159865309e+00 1.8457351348927733e+00 0 0 0
121 1 2.5930671411444344e+01 -5.6237000590554693e+00 -9.8079326064389472e-01 -1 0 0
128 1 2.8003583414373994e+00 -1.7167009829552171e+00 5.2495595842892540e-01 0 0 0
131 1 4.2327069218588891e+00 -3.1065770042689067e+00 1.7860044843922438e+00 0 0 0
135 1 6.8298334873774351e+00 -2.8713618848307831e+00 -1.0430339337525141e+00 0 0 0
136 1 8.2256497856529958e+00 -1.5842717450066601e+00 3.8257330980983073e-01 0 0 0
139 1 9.6315567488070943e+00 -2.9310915221479341e+00 1.8696168514275140e+00 0 0 0
144 1 1.3727251454234143e+01 -1.6763003722739498e+00 5.4949470097034547e-01 0 0 0
143 1 1.2248673800743205e+01 -2.9237991674508699e+00 -7.9623368931878469e-01 0 0 0
147 1 1.5071519827833564e+01 -3.0873574442488376e+00 1.9000043079104092e+00 0 0 0
152 1 1.9240952809232439e+01 -1.7680941413813009e+00 3.7500612342332618e-01 0 0 0
151 1 1.7776345470231696e+01 -2.9338247133143938e+00 -1.0491398882358582e+00 0 0 0
155 1 2.0651969978019160e+01 -3.0173941344006074e+00 1.7025409016372017e+00 0 0 0
123 1 2.5952957295983573e+01 -2.9183579590452631e+00 1.9722280887362684e+00 -1 0 0
160 1 2.4521993348192375e+01 -1.6022009926534224e+00 7.0656619095989104e-01 0 0 0
159 1 2.3250767715875554e+01 -2.9581916311150813e+00 -8.1639388058496354e-01 0 0 0
162 1 2.1190634058687685e-01 1.1331622304676259e+00 5.5233606256861090e-01 0 0 0
165 1 1.5787628437715608e+00 -2.9796860056488228e-01 1.9270284255598376e+00 0 0 0
163 1 2.5982772104992872e+01 2.4933558128209334e+00 1.9834656724618354e+00 -1 0 0
171 1 4.2850364952367137e+00 2.5437402726382992e+00 1.9225963487748481e+00 0 0 0
169 1 4.1249338637728030e+00 -2.2930486133603267e-01 -8.2332466038049046e-01 0 0 0
173 1 6.8534652229040036e+00 -2.6442524622558139e-01 1.8232701703127816e+00 0 0 0
170 1 5.4994278203537661e+00 1.1450476201745516e+00 4.6495010879358944e-01 0 0 0
179 1 9.6920634521390276e+00 2.4404382884623175e+00 1.8986675966286017e+00 0 0 0
177 1 9.6534075724125508e+00 -2.2307606057650631e-01 -8.5754909245133060e-01 0 0 0
178 1 1.1076551537882125e+01 1.0543345379674314e+00 6.0782686376075690e-01 0 0 0
181 1 1.2441027436476325e+01 -2.9603471614220567e-01 1.9529399998642791e+00 0 0 0
186 1 1.6615401331883746e+01 1.0357518878857910e+00 3.5365168786587220e-01 0 0 0
187 1 1.5346521625591118e+01 2.3931352512390234e+00 1.9470525723706094e+00 0 0 0
185 1 1.5109180249613699e+01 -3.5039892213976032e-01 -9.0922731979291849e-01 0 0 0
189 1 1.7852695785463027e+01 -4.2378974277109904e-01 1.7563663475935596e+00 0 0 0
191 1 1.7828645533833360e+01 2.3616620412750819e+00 -1.0219410494575640e+00 0 0 0
194 1 2.1748230542337367e+01 1.1261542667779381e+00 4.5752356294329810e-01 0 0 0
195 1 2.0441767783996582e+01 2.3995489096977742e+00 1.7636205150939803e+00 0 0 0
193 1 2.0555452472374377e+01 -2.6750217381665564e-01 -9.4648861007053564e-01 0 0 0
197 1 2.3196026176975707e+01 -7.8938986287791835e-02 1.8622768573270259e+00 0 0 0
161 1 2.5843839888692507e+01 -1.8545619882232245e-01 -6.4614552720811136e-01 -1 0 0
205 1 1.4882335294876707e+00 5.2090394497756733e+00 1.9412842784914841e+00 0 0 0
168 1 2.9995386917954274e+00 3.9190232174219091e+00 6.2156651378173255e-01 0 0 0
213 1 7.1528552650494674e+00 5.1328461510094776e+00 1.7870819664179347e+00 0 0 0
176 1 8.4621440601639684e+00 3.7461280866750428e+00 4.2167660366001725e-01 0 0 0
217 1 9.7415875241350740e+00 5.1898936435704925e+00 -9.4821044892085848e-01 0 0 0
184 1 1.3923418803552920e+01 3.6463376085424954e+00 6.0577525227612217e-01 0 0 0
221 1 1.2444547700242765e+01 5.0586604330913936e+00 1.7952793128279829e+00 0 0 0
225 1 1.5160262592023704e+01 4.9779222873554296e+00 -9.3441626771595843e-01 0 0 0
192 1 1.9176844559775631e+01 3.7524337629674704e+00 3.4509894150312714e-01 0 0 0
229 1 1.7844684392253640e+01 5.1531363865840909e+00 1.8393100740691541e+00 0 0 0
200 1 2.4605728561664606e+01 3.9184867882725705e+00 4.5274534537324662e-01 0 0 0
237 1 2.3115740370791208e+01 5.2129378260747288e+00 1.7273616613178437e+00 0 0 0
201 1 2.6051138728848400e+01 5.2786366892546397e+00 -8.4918610053334609e-01 -1 0 0
202 1 1.9218781392578776e-01 6.6754502464229439e+00 5.7306650057630826e-01 0 0 0
203 1 2.6032022126966250e+01 7.9067325030881719e+00 1.8733285548402576e+00 -1 0 0
211 1 4.2794736201012915e+00 7.9167329112596185e+00 1.7317057208318900e+00 0 0 0
210 1 5.7102953150848244e+00 6.6520895708846091e+00 4.7613125364020004e-01 0 0 0
219 1 9.7557693123499263e+00 7.8689831232707803e+00 1.9152504684081473e+00 0 0 0
218 1 1.1164804029896306e+01 6.6044127860822464e+00 4.9234970665204281e-01 0 0 0
223 1 1.2509412526448775e+01 7.9371290385880613e+00 -8.4443204006752270e-01 0 0 0
226 1 1.6384169247421156e+01 6.5655265748383869e+00 4.2737454640993255e-01 0 0 0
227 1 1.5098051080651766e+01 7.7843392871589536e+00 1.8967651356485558e+00 0 0 0
234 1 2.1729404198279489e+01 6.5397563995320525e+00 4.6089253083563730e-01 0 0 0
235 1 2.0439167524795089e+01 8.0035077795161982e+00 1.7944059061432212e+00 0 0 0
239 1 2.3239214297693970e+01 7.9046404930252550e+00 -9.1756595453937628e-01 0 0 0
245 1 1.4996149461896735e+00 1.0626245025636877e+01 1.8478060514198615e+00 0 0 0
16236 1 2.1885228634593183e+01 9.2621528774600499e+00 2.4998024266509191e+01 0 0 0
241 1 2.6093502303239038e+01 1.0717976576314051e+01 -9.9956695406669460e-01 -1 0 0
208 1 2.8671082722463086e+00 9.3292580373515683e+00 4.5114414391505009e-01 0 0 0
249 1 4.3361321935733885e+00 1.0661771921819884e+01 -8.1594306622470492e-01 0 0 0
253 1 7.0543269438661778e+00 1.0538305017570785e+01 1.8338808811754950e+00 0 0 0
216 1 8.3784183780899699e+00 9.1737034660549703e+00 4.6210016288438838e-01 0 0 0
224 1 1.3825457491617723e+01 9.2852260741346520e+00 5.9421848295888391e-01 0 0 0
261 1 1.2533741766418892e+01 1.0726920160836343e+01 1.8562913283802631e+00 0 0 0
273 1 2.0656261032399350e+01 1.0600291436155068e+01 -7.6881528825927603e-01 0 0 0
232 1 1.9197817701341286e+01 9.2956779143059833e+00 4.3606309473380578e-01 0 0 0
269 1 1.7797522314374845e+01 1.0580332444675115e+01 1.8014361128915692e+00 0 0 0
16269 1 1.7932571298468361e+01 1.0577484047410827e+01 2.3790868975563569e+01 0 0 0
240 1 2.4795156773210977e+01 9.2241177524901126e+00 3.7330453134133279e-01 0 0 0
277 1 2.3388983411676165e+01 1.0514087508114223e+01 1.7627979808713889e+00 0 0 0
4007 1 1.4435787488673255e+00 -1.9485230929713381e+01 4.5856822066304685e+00 0 0 0
6 1 2.9696715558601703e+00 -2.0616451361624964e+01 3.1634347112866221e+00 0 0 0
4009 1 4.2559129174962393e+00 -2.1988039081622667e+01 4.4707023710782385e+00 0 0 0
4015 1 6.9745446912010838e+00 -1.9242936720471114e+01 4.5335533176760361e+00 0 0 0
14 1 8.4308171610674609e+00 -2.0628660047845194e+01 3.1131175561498008e+00 0 0 0
4017 1 9.7928076370669643e+00 -2.1956403189801446e+01 4.5952201518420086e+00 0 0 0
4023 1 1.2488875228001984e+01 -1.9091421532861460e+01 4.6225272418508538e+00 0 0 0
22 1 1.3794827140024958e+01 -2.0462730963171001e+01 3.1808254895253105e+00 0 0 0
4031 1 1.7836339095874621e+01 -1.9279047544147968e+01 4.5151567021495076e+00 0 0 0
30 1 1.9302414113416084e+01 -2.0594769418577673e+01 3.2155143436471425e+00 0 0 0
4033 1 2.0682706459121157e+01 -2.1917723287934596e+01 4.6179081595158769e+00 0 0 0
38 1 2.4762099506072083e+01 -2.0674530361305667e+01 3.2198122682629542e+00 0 0 0
4039 1 2.3303210590625000e+01 -1.9175687603031346e+01 4.5314549764596794e+00 0 0 0
265 1 1.5077903902795489e+01 1.0442727217044194e+01 -1.0193549409084142e+00 0 0 0
4 1 2.5637094544277383e-01 -1.8026098338991734e+01 3.1916188595263133e+00 0 0 0
4049 1 4.2919850168886855e+00 -1.6498664781389671e+01 4.5900497552350092e+00 0 0 0
12 1 5.7123559086671269e+00 -1.7861094514261946e+01 3.1587799983160805e+00 0 0 0
4057 1 9.7905380717327386e+00 -1.6515708052320232e+01 4.6846532886731591e+00 0 0 0
20 1 1.1100291668981015e+01 -1.7699947174466331e+01 3.3007323257443266e+00 0 0 0
4065 1 1.5256356012603758e+01 -1.6459257657524397e+01 4.6627297351190871e+00 0 0 0
28 1 1.6585775856535271e+01 -1.7828779201324252e+01 3.2958796353027600e+00 0 0 0
4073 1 2.0617905979999279e+01 -1.6543443056896479e+01 4.5668434428737035e+00 0 0 0
36 1 2.1959397031435195e+01 -1.7771448411217794e+01 3.2378149659489095e+00 0 0 0
4041 1 2.6097853944671783e+01 -1.6639571505402174e+01 4.4696796428485914e+00 -1 0 0
4047 1 1.5702145362088187e+00 -1.3846412906257418e+01 4.5327610367633726e+00 0 0 0
46 1 2.8724894960781824e+00 -1.5198094743452218e+01 3.1082379328014911e+00 0 0 0
4055 1 7.0733525061043494e+00 -1.3797866019129957e+01 4.6088980736786507e+00 0 0 0
54 1 8.4639332675243608e+00 -1.5159359797536972e+01 3.2836976365716701e+00 0 0 0
4063 1 1.2650668234155123e+01 -1.3974508340322730e+01 4.5903869028403577e+00 0 0 0
62 1 1.3986137559256333e+01 -1.5117597230764932e+01 3.0314542037713545e+00 0 0 0
4071 1 1.7909543140025214e+01 -1.3655171628044258e+01 4.4280361910178998e+00 0 0 0
70 1 1.9230270114978559e+01 -1.5097826111275896e+01 3.2150892879083752e+00 0 0 0
78 1 2.4727453726605496e+01 -1.5064557268391571e+01 3.1966745921087441e+00 0 0 0
4079 1 2.3190610198893928e+01 -1.3808075527721883e+01 4.5007058734684424e+00 0 0 0
44 1 1.8315422844962015e-01 -1.2497469401731802e+01 3.1448803999090371e+00 0 0 0
4089 1 4.2579812874360572e+00 -1.1196534931305386e+01 4.5767736078445775e+00 0 0 0
86 1 2.8088864322542957e+00 -9.8185828683164580e+00 3.1661141169656579e+00 0 0 0
52 1 5.6403959324597635e+00 -1.2533149745728618e+01 3.1853004074752729e+00 0 0 0
94 1 8.2654994034822984e+00 -9.7247645539476917e+00 3.2361981023226409e+00 0 0 0
4097 1 9.6730019013620545e+00 -1.1057171627281608e+01 4.5831853808900274e+00 0 0 0
60 1 1.1170146619033968e+01 -1.2363683368613346e+01 3.3023888242523531e+00 0 0 0
102 1 1.3858610257743278e+01 -9.6721872888366942e+00 3.0499119464818758e+00 0 0 0
68 1 1.6613337609268790e+01 -1.2262049142732813e+01 3.0075678897445579e+00 0 0 0
4105 1 1.5143973581654434e+01 -1.1043427965967417e+01 4.4019318759699022e+00 0 0 0
76 1 2.1909052599147472e+01 -1.2407809295649722e+01 3.1587270214847294e+00 0 0 0
4113 1 2.0606610929248454e+01 -1.1020322443284078e+01 4.4006567980792761e+00 0 0 0
4081 1 2.6025296619801104e+01 -1.1186184454983479e+01 4.5779877964054867e+00 -1 0 0
118 1 2.4708933356613322e+01 -9.7590041067263353e+00 3.1541578019261127e+00 0 0 0
84 1 1.4991494855029397e-01 -7.1193944452882594e+00 3.3188087164530957e+00 0 0 0
4087 1 1.5487731692793525e+00 -8.3543362926309008e+00 4.5915815830246043e+00 0 0 0
92 1 5.5050260608962569e+00 -7.0330294688873405e+00 3.1199263984200067e+00 0 0 0
4095 1 6.8356885894414408e+00 -8.3663785395427226e+00 4.5631246160847185e+00 0 0 0
100 1 1.1171970548102491e+01 -7.0412233016667773e+00 3.2740586429018261e+00 0 0 0
4103 1 1.2561817124866131e+01 -8.4906450628796950e+00 4.3748649218596674e+00 0 0 0
108 1 1.6502766451799069e+01 -7.0055833015612521e+00 3.0844453725702152e+00 0 0 0
110 1 1.9326897179074031e+01 -9.6223166670717717e+00 3.0149791970154318e+00 0 0 0
4111 1 1.7861385449523652e+01 -8.3145648462300255e+00 4.4175846000535772e+00 0 0 0
116 1 2.1944212018642077e+01 -6.9610323702378896e+00 3.1859946711467284e+00 0 0 0
4119 1 2.3357792314264763e+01 -8.3866903896108589e+00 4.5606858589515067e+00 0 0 0
4129 1 4.2056610905282072e+00 -5.6558626436067669e+00 4.7608215946939261e+00 0 0 0
126 1 2.8737724200026524e+00 -4.4314991688963801e+00 3.1940785020025455e+00 0 0 0
4137 1 9.6409267032148112e+00 -5.6819724032240906e+00 4.4845351548360339e+00 0 0 0
134 1 8.1793745984031645e+00 -4.3602658680948494e+00 3.1473381308005317e+00 0 0 0
142 1 1.3618954178875558e+01 -4.3724613769716107e+00 3.2190266838659509e+00 0 0 0
4145 1 1.5076085501838500e+01 -5.7370522639310195e+00 4.4011997962738656e+00 0 0 0
150 1 1.9279919520356621e+01 -4.2416118363386168e+00 3.0521211324385744e+00 0 0 0
4153 1 2.0577965026355422e+01 -5.6440773002310713e+00 4.5086241629914365e+00 0 0 0
4121 1 2.5848648979043823e+01 -5.7441437487726184e+00 4.6972912548008470e+00 -1 0 0
158 1 2.4600332348000194e+01 -4.3006199776976928e+00 3.2931819755149645e+00 0 0 0
4127 1 1.4115411828089681e+00 -3.0566844947700744e+00 4.5753793847039077e+00 0 0 0
124 1 1.0705063777836332e-01 -1.5391729169476704e+00 3.3706608945935095e+00 0 0 0
4135 1 6.8560260624901126e+00 -2.9299537814991190e+00 4.4229662864946118e+00 0 0 0
132 1 5.3527191080862790e+00 -1.5790930645086227e+00 3.1305975416128682e+00 0 0 0
140 1 1.1121104552199819e+01 -1.7991211690677673e+00 3.2294707113257646e+00 0 0 0
4143 1 1.2472466076486510e+01 -3.0498947180696092e+00 4.6959293514056384e+00 0 0 0
148 1 1.6407721829769287e+01 -1.6516441036253440e+00 3.1713585351457025e+00 0 0 0
4151 1 1.7919971878966805e+01 -2.8622837692765941e+00 4.4136160258445472e+00 0 0 0
156 1 2.2002342733725925e+01 -1.6647347905365351e+00 3.1009896945840607e+00 0 0 0
4159 1 2.3313933404811280e+01 -3.0630178156857752e+00 4.5641056371862776e+00 0 0 0
4167 1 1.5040770371252812e+00 2.3965049188015293e+00 4.5802318512024884e+00 0 0 0
4169 1 4.2325203263711986e+00 -1.8265901113776195e-01 4.6544098809501513e+00 0 0 0
166 1 2.8041926359703511e+00 1.0536908955790878e+00 3.1785770127403197e+00 0 0 0
4175 1 6.9089696228310729e+00 2.5523454198247784e+00 4.5053010651729597e+00 0 0 0
4177 1 9.6438549847271844e+00 -2.6335991625524713e-01 4.4610358082941275e+00 0 0 0
174 1 8.2059458299979511e+00 1.1412070844951252e+00 3.2558062547368163e+00 0 0 0
4183 1 1.2419376809335164e+01 2.3616932655273253e+00 4.6094499343814803e+00 0 0 0
182 1 1.3990409115258538e+01 1.0755641717254427e+00 3.3769023442526684e+00 0 0 0
4185 1 1.5189997403597628e+01 -2.5640670713353941e-01 4.6984172229819823e+00 0 0 0
190 1 1.9274703058913381e+01 9.2781155488212264e-01 3.1384323150895694e+00 0 0 0
4191 1 1.8050626633033616e+01 2.4600076408415177e+00 4.6251814997954135e+00 0 0 0
4193 1 2.0585865308432595e+01 -3.9016779394065537e-01 4.4305523180125927e+00 0 0 0
4161 1 2.5897068092744952e+01 -1.8795819912781653e-01 4.7530691820572573e+00 -1 0 0
198 1 2.4594774710138978e+01 1.1182706023694990e+00 3.3188773786291250e+00 0 0 0
4199 1 2.3182519775890633e+01 2.4632666078696950e+00 4.6603873657814088e+00 0 0 0
164 1 9.8665873879112187e-02 3.7709102644851988e+00 3.3041412907766841e+00 0 0 0
4209 1 4.3500768245807091e+00 5.2099461241880789e+00 4.6207910465659623e+00 0 0 0
172 1 5.6679358739041854e+00 3.9374563100197157e+00 3.1628861248135118e+00 0 0 0
4217 1 9.6382957398309301e+00 5.1644053735472077e+00 4.5626443060343114e+00 0 0 0
180 1 1.0950325126674786e+01 3.8359955888080641e+00 3.2052323555368760e+00 0 0 0
188 1 1.6669764080963702e+01 3.7794999898161983e+00 3.3617556781642213e+00 0 0 0
4225 1 1.5105259977123120e+01 5.1126827531442451e+00 4.5298937511003565e+00 0 0 0
196 1 2.1912810980120284e+01 3.7615131326863214e+00 3.3206654047298345e+00 0 0 0
4233 1 2.0559887569497128e+01 5.0004422685898291e+00 4.6165898137502603e+00 0 0 0
4201 1 -1.0869175169027940e+00 5.1752233503390208e+00 4.5476758661197856e+00 0 0 0
4207 1 1.6200494605304194e+00 8.1054009624503180e+00 4.6352412992375616e+00 0 0 0
206 1 2.9861785297167236e+00 6.6283939055141481e+00 3.2304039546348884e+00 0 0 0
4215 1 7.2121612911707285e+00 8.0371315060874338e+00 4.6550664309560448e+00 0 0 0
214 1 8.3599930959833184e+00 6.6511604583727646e+00 3.3021468814748713e+00 0 0 0
4223 1 1.2442300579780396e+01 7.8594613914858016e+00 4.5057287104040364e+00 0 0 0
222 1 1.3802021373754632e+01 6.4414066267581447e+00 3.1569211475686894e+00 0 0 0
4231 1 1.7913548796947111e+01 7.8948509301099961e+00 4.6419618792892994e+00 0 0 0
230 1 1.9215359570685223e+01 6.5194584948384602e+00 3.1620820990525802e+00 0 0 0
238 1 2.4752193955049378e+01 6.3726280798148949e+00 3.1395481567360335e+00 0 0 0
4239 1 2.3285882811231915e+01 7.6799994181749192e+00 4.4767636047904427e+00 0 0 0
204 1 1.0862681031770660e-01 9.2095057241365161e+00 3.2109520725575065e+00 0 0 0
4249 1 4.4823862287764209e+00 1.0591267757348859e+01 4.5999816473884527e+00 0 0 0
246 1 2.8771823098086835e+00 1.1896662047297461e+01 3.3250841342269668e+00 0 0 0
212 1 5.7780123057365715e+00 9.1457996803533845e+00 3.1774225050065805e+00 0 0 0
4257 1 9.9450967872857134e+00 1.0716397903200708e+01 4.7196096715527887e+00 0 0 0
220 1 1.1195167547985202e+01 9.3389358326212744e+00 3.2049457318158758e+00 0 0 0
4265 1 1.5261165116487133e+01 1.0636517211457232e+01 4.4749600083787353e+00 0 0 0
228 1 1.6660765580971962e+01 9.0512945020424276e+00 3.2130607460283178e+00 0 0 0
4273 1 2.0562113420747586e+01 1.0550759939671430e+01 4.5792859188014337e+00 0 0 0
236 1 2.2041787924531555e+01 9.1094644024165916e+00 3.2043695393305462e+00 0 0 0
4241 1 2.5973865236241259e+01 1.0714775445881017e+01 4.5864823002568507e+00 -1 0 0
4002 1 1.1780268637944635e-01 -2.0750425590648742e+01 6.0137153897688691e+00 0 0 0
4003 1 -9.9739722913652695e-01 -1.9204697289444745e+01 7.3183441723516829e+00 0 0 0
16228 1 1.6542236814464005e+01 9.2386488021928770e+00 2.5047976241283230e+01 0 0 0
4011 1 4.1909520401978941e+00 -1.9353771634021573e+01 7.2307667907325754e+00 0 0 0
4010 1 5.6155663352008771e+00 -2.0639124434195917e+01 5.7859447119274261e+00 0 0 0
4013 1 7.0456791717606801e+00 -2.1817028474136574e+01 7.2388917804958517e+00 0 0 0
4019 1 9.7004289801568042e+00 -1.9203460884075671e+01 7.3498272131839357e+00 0 0 0
4018 1 1.1148355708379240e+01 -2.0569958184004538e+01 6.0312250321552234e+00 0 0 0
4021 1 1.2360720033742627e+01 -2.1999310190346154e+01 7.2889328487182841e+00 0 0 0
4027 1 1.5051984894255453e+01 -1.9283117749067671e+01 7.2296367468917531e+00 0 0 0
4026 1 1.6484192999689633e+01 -2.0589711843142620e+01 5.9711464928130216e+00 0 0 0
4029 1 1.7817443386442243e+01 -2.1958724310085675e+01 7.2552212420986422e+00 0 0 0
4034 1 2.1937952553287957e+01 -2.0466292299855496e+01 5.9543489589001970e+00 0 0 0
4035 1 2.0467622860061816e+01 -1.9241578343983825e+01 7.4691839097256079e+00 0 0 0
4037 1 2.3286209407964549e+01 -2.1862793914599454e+01 7.2886747991524921e+00 0 0 0
4045 1 1.5774584107805638e+00 -1.6461822390610582e+01 7.2546546262256228e+00 0 0 0
4008 1 2.9038612400549155e+00 -1.7879430921065065e+01 5.8725379030328071e+00 0 0 0
4053 1 6.9604574269814954e+00 -1.6641318127125096e+01 7.1623573741834523e+00 0 0 0
4016 1 8.4463973466939670e+00 -1.7967888764332741e+01 5.8542229725618498e+00 0 0 0
4061 1 1.2418062852456975e+01 -1.6618313251992245e+01 7.2938613207577898e+00 0 0 0
4024 1 1.3832109565784572e+01 -1.7796509051420088e+01 5.9170521882313860e+00 0 0 0
4069 1 1.7792373472411633e+01 -1.6560980580438752e+01 7.3225601705849019e+00 0 0 0
4032 1 1.9247813771563862e+01 -1.7890111896176840e+01 5.9494169640479049e+00 0 0 0
4077 1 2.3239122101489208e+01 -1.6457771846602668e+01 7.1314515313165678e+00 0 0 0
4040 1 2.4680395832347322e+01 -1.7874764976112910e+01 5.9408287017840227e+00 0 0 0
4042 1 1.4470763844663259e-01 -1.5216634804855051e+01 5.8469670939800586e+00 0 0 0
4051 1 4.2344687768863150e+00 -1.3851006082978726e+01 7.2251138153805012e+00 0 0 0
4050 1 5.6450178120748333e+00 -1.5212913564387611e+01 5.8999082466872199e+00 0 0 0
4059 1 9.6309434503444820e+00 -1.3798239091841738e+01 7.3147735836718777e+00 0 0 0
4058 1 1.1089165779880661e+01 -1.5217733322571755e+01 5.9327561474131478e+00 0 0 0
4067 1 1.5349692558843680e+01 -1.3774711568912196e+01 7.3317288594080363e+00 0 0 0
4066 1 1.6663851843657369e+01 -1.5064250812425840e+01 5.8705218031866258e+00 0 0 0
4074 1 2.1936471755369624e+01 -1.5057088083091390e+01 5.8229861417829536e+00 0 0 0
4075 1 2.0453745587640974e+01 -1.3850539189466204e+01 7.3310425567292050e+00 0 0 0
4043 1 2.6071274859552332e+01 -1.3849889481180368e+01 7.1762883834928637e+00 -1 0 0
4085 1 1.5928656973936688e+00 -1.1199981653991657e+01 7.3829429561116644e+00 0 0 0
4082 1 2.2200886053219393e-01 -9.8244072600501422e+00 5.9366004995725241e+00 0 0 0
4048 1 2.8600812760111278e+00 -1.2545264167206250e+01 5.9484275792978361e+00 0 0 0
4093 1 6.9976524672339853e+00 -1.1108675243492907e+01 7.2876649851795161e+00 0 0 0
4090 1 5.5991246776324468e+00 -9.8251006159159040e+00 5.8926480761286184e+00 0 0 0
4056 1 8.3728175524726911e+00 -1.2464897895115476e+01 5.9173984950664869e+00 0 0 0
4064 1 1.3924543346165775e+01 -1.2525007426849520e+01 5.8073833724595989e+00 0 0 0
4101 1 1.2488013828891704e+01 -1.1202287049027712e+01 7.3061510250581101e+00 0 0 0
4098 1 1.1213675858183747e+01 -9.8946413748480637e+00 5.7659477773415047e+00 0 0 0
4072 1 1.9249962105650219e+01 -1.2381660447032493e+01 5.8102039792804314e+00 0 0 0
4109 1 1.7969042873942740e+01 -1.1006089866491180e+01 7.1373106623311173e+00 0 0 0
4114 1 2.2091310049353773e+01 -9.9263898077569639e+00 5.8302401142832103e+00 0 0 0
4080 1 2.4651712735517378e+01 -1.2493000110902273e+01 5.8971548580508895e+00 0 0 0
4117 1 2.3298728760131581e+01 -1.1197751267791002e+01 7.2881338898531549e+00 0 0 0
4091 1 4.2268397259702475e+00 -8.5653267652006129e+00 7.2352152094749780e+00 0 0 0
4088 1 2.8256185631153610e+00 -7.0419829172424588e+00 5.9573794864369605e+00 0 0 0
4096 1 8.2815471740199822e+00 -6.9630936899772138e+00 5.8246954743639154e+00 0 0 0
4099 1 9.7140867328679903e+00 -8.5762461187842707e+00 6.9935351287835559e+00 0 0 0
4104 1 1.3828380854274798e+01 -7.0881549841953646e+00 5.8378306686456742e+00 0 0 0
4106 1 1.6474021638231157e+01 -9.7676913720017335e+00 5.8264548842118415e+00 0 0 0
4107 1 1.5127692716841741e+01 -8.3688920704113983e+00 7.2883610114232269e+00 0 0 0
4112 1 1.9307366184686266e+01 -7.0368825180877490e+00 5.8559915652000170e+00 0 0 0
4115 1 2.0678399120646120e+01 -8.4750162881080850e+00 7.0619934977262986e+00 0 0 0
4083 1 2.5899282505950069e+01 -8.5180176243214554e+00 7.3678842010078647e+00 -1 0 0
4120 1 2.4603245784009722e+01 -7.0885344732337661e+00 5.9584892547322390e+00 0 0 0
4125 1 1.4765868739334351e+00 -5.7820341959381594e+00 7.4137901502861343e+00 0 0 0
4122 1 2.3525581915587512e-02 -4.4280449832179514e+00 6.0162018018398955e+00 0 0 0
4133 1 6.9152161054045731e+00 -5.6274327650727116e+00 7.2211461675718844e+00 0 0 0
4130 1 5.4569910614185169e+00 -4.1982812781205077e+00 6.0390867137426616e+00 0 0 0
4138 1 1.0875752968949364e+01 -4.3007397701988879e+00 5.9702956633769766e+00 0 0 0
4141 1 1.2344124296395121e+01 -5.7069707836925936e+00 7.1826361579933682e+00 0 0 0
4146 1 1.6506414610482373e+01 -4.2963978547195723e+00 5.8723985877584566e+00 0 0 0
4149 1 1.7861664133137083e+01 -5.7945413511248738e+00 7.1573766294500683e+00 0 0 0
4154 1 2.1839573619703678e+01 -4.4149637507791581e+00 5.9944259295576208e+00 0 0 0
4157 1 2.3302026300055751e+01 -5.7606971444403889e+00 7.2168276887761937e+00 0 0 0
4131 1 4.0519511976584148e+00 -2.8615303015040894e+00 7.3627454021906757e+00 0 0 0