LAMMPS data file via write_data, version 30 Jul 2016, timestep = 5000

20000 atoms
1 atom types

-1.1038129598819815e+00 2.6103812959881921e+01 xlo xhi
-2.2076259197639587e+01 5.2207625919763962e+02 ylo yhi
-1.1038129598819815e+00 2.6103812959881921e+01 zlo zhi

Masses

1 28.0855

Atoms # atomic

16278 1 2.4670890145012049e+01 1.1864431867657801e+01 2.4697054216622249e+01 0 0 0
2 1 3.6756089079452309e-01 -2.0887422858748351e+01 1.1364755623289086e-01 0 0 0
3 1 -1.0141964837535213e+00 -1.9543228710934322e+01 1.4854666759112760e+00 0 0 0
16277 1 2.3301189706435945e+01 1.0521221046298738e+01 2.3317135624390815e+01 0 0 0
7 1 1.7154324853840599e+00 -1.9452636336528382e+01 2.6037382700616341e+01 0 0 -1
16236 1 2.2075176358238046e+01 9.1276566785681474e+00 2.4618630852200358e+01 0 0 0
11 1 4.2835725040098040e+00 -1.9546660912429569e+01 1.5247856268426392e+00 0 0 0
10 1 5.7010296852767093e+00 -2.0698016806125064e+01 4.6536563856089341e-02 0 0 0
16270 1 1.9203564206964256e+01 1.1928924418583923e+01 2.4645316637080686e+01 0 0 0
15 1 7.2454577720300328e+00 -1.9637785769759795e+01 2.5900697415118792e+01 0 0 -1
16269 1 1.7814218387271733e+01 1.0608918757521279e+01 2.3390057133504111e+01 0 0 0
19 1 9.9549843301301770e+00 -1.9509878498553054e+01 1.5669863742044667e+00 0 0 0
18 1 1.1278338388775314e+01 -2.0958946518858436e+01 1.9361057994934444e-01 0 0 0
16228 1 1.6548443896064168e+01 9.1787083266607663e+00 2.4562229421527221e+01 0 0 0
23 1 1.2512073889223227e+01 -1.9632994798009037e+01 -1.0891757149568584e+00 0 0 0
16262 1 1.3766298696274317e+01 1.1838585581653733e+01 2.4618075729356864e+01 0 0 0
27 1 1.5386212079211790e+01 -1.9679301071976138e+01 1.5955255922396814e+00 0 0 0
26 1 1.6809994850359278e+01 -2.0835987177941568e+01 1.6481830101211445e-01 0 0 0
16261 1 1.2559304484961652e+01 1.0384879661725288e+01 2.3201956587744789e+01 0 0 0
31 1 1.8118241123870838e+01 -1.9459399769536954e+01 2.6002270206589873e+01 0 0 -1
16220 1 1.1138234634789489e+01 9.0716915805356688e+00 2.4454572444083126e+01 0 0 0
34 1 2.2109431473381978e+01 -2.0863021382255770e+01 5.9483620271696444e-02 0 0 0
35 1 2.0661820308881271e+01 -1.9456886245573831e+01 1.5270231948878021e+00 0 0 0
16254 1 8.4327342445112947e+00 1.1830913785499042e+01 2.4455383001913415e+01 0 0 0
39 1 2.3534560782356174e+01 -1.9416592838609890e+01 2.5941365402822061e+01 0 0 -1
41 1 -9.2468811248070826e-01 -1.6817194209444750e+01 2.5973461688880043e+01 0 0 -1
45 1 1.5604943385979364e+00 -1.6828644990148888e+01 1.5315932111975963e+00 0 0 0
49 1 4.4572233441296820e+00 -1.6741049942913666e+01 2.5833834045181863e+01 0 0 -1
8 1 3.0404708346185902e+00 -1.8104742276319616e+01 1.4766127427871886e-01 0 0 0
53 1 7.1000177427347850e+00 -1.7031644384347842e+01 1.4913585191245997e+00 0 0 0
16 1 8.5294356215323042e+00 -1.8182307210209519e+01 1.9509436950317587e-02 0 0 0
57 1 9.9599686219587600e+00 -1.6743349890871990e+01 2.6006058037838763e+01 0 0 -1
61 1 1.2618162426094601e+01 -1.6737157702956527e+01 1.5782823535462351e+00 0 0 0
24 1 1.3922736748199330e+01 -1.8237790895853188e+01 2.8461502199267474e-01 0 0 0
65 1 1.5267510183720624e+01 -1.6884129811630636e+01 2.6035966046079452e+01 0 0 -1
69 1 1.7869378129797592e+01 -1.6719916486002859e+01 1.5711759308400099e+00 0 0 0
32 1 1.9262723893696858e+01 -1.8071871781830051e+01 2.9844486562390654e-01 0 0 0
73 1 2.0672607124203147e+01 -1.6692742787927926e+01 -9.8479338203221256e-01 0 0 0
77 1 2.3391380069832067e+01 -1.6870083052252912e+01 1.5256899699805586e+00 0 0 0
40 1 2.4867035363576356e+01 -1.8106066762674033e+01 1.0833931265911508e-01 0 0 0
42 1 2.2563176490139317e-01 -1.5304230432720377e+01 2.1164172739056980e-01 0 0 0
43 1 -1.0133664414477019e+00 -1.3770833787433164e+01 1.6676010185116903e+00 0 0 0
47 1 1.7353237586895576e+00 -1.3940385254370906e+01 2.5977530094569005e+01 0 0 -1
51 1 4.4277433427084443e+00 -1.4078426947443843e+01 1.5371067478820852e+00 0 0 0
50 1 5.8178363173596344e+00 -1.5499331664136092e+01 2.6375584258270083e-02 0 0 0
55 1 7.1307349400260733e+00 -1.3991279857448729e+01 2.5864241274863971e+01 0 0 -1
59 1 9.7382410086982389e+00 -1.4052545689675100e+01 1.5170540463440774e+00 0 0 0
58 1 1.1290342062392805e+01 -1.5426163422139325e+01 1.9028934081615156e-01 0 0 0
63 1 1.2536131476402677e+01 -1.3943419673199093e+01 -1.0995628963815320e+00 0 0 0
67 1 1.5177247506302706e+01 -1.4047250886096801e+01 1.5125811119540624e+00 0 0 0
66 1 1.6563692986798209e+01 -1.5400379943321127e+01 2.0650025097741437e-01 0 0 0
71 1 1.7917523437727649e+01 -1.4023148367771851e+01 -1.0910344325646317e+00 0 0 0
74 1 2.2157153201195175e+01 -1.5439138437452353e+01 3.0105462967603319e-01 0 0 0
75 1 2.0583804042342194e+01 -1.4037774803067801e+01 1.4195636161077068e+00 0 0 0
79 1 2.3331990492810530e+01 -1.4015566601012697e+01 -1.0829902260580098e+00 0 0 0
81 1 -1.0173246796062327e+00 -1.1370092771794795e+01 2.5890783057296936e+01 0 0 -1
82 1 2.9118891839150801e-01 -1.0029789641992016e+01 1.5331229973295057e-01 0 0 0
85 1 1.7657145128490663e+00 -1.1214327840001410e+01 1.5270470006888748e+00 0 0 0
48 1 3.0020155295605115e+00 -1.2636889686714113e+01 2.0062980333247962e-01 0 0 0
89 1 4.3503287458654514e+00 -1.1314915465313547e+01 2.5964353398056481e+01 0 0 -1
90 1 5.6577011703958355e+00 -9.9147957888691263e+00 2.0101491727460030e-01 0 0 0
93 1 7.0386547051307407e+00 -1.1297194279458889e+01 1.5351846646092493e+00 0 0 0
56 1 8.4470778970671923e+00 -1.2632144887738553e+01 1.4149468107283800e-01 0 0 0
97 1 9.7615714737810588e+00 -1.1229503327260591e+01 2.6092402020396797e+01 0 0 -1
64 1 1.3951906128393540e+01 -1.2544994435563519e+01 1.6881687201806467e-01 0 0 0
98 1 1.1272764892387606e+01 -9.7794330098527062e+00 1.0530086930601217e-01 0 0 0
101 1 1.2486141453815749e+01 -1.1343614248206285e+01 1.5109911164203653e+00 0 0 0
105 1 1.5217350986851523e+01 -1.1194115683212653e+01 2.5812881281562493e+01 0 0 -1
106 1 1.6699459144599782e+01 -9.8854618949675839e+00 2.7273676497148076e-02 0 0 0
72 1 1.9368685782006214e+01 -1.2631505851444910e+01 7.1453595639415127e-02 0 0 0
109 1 1.8073445073127484e+01 -1.1351562144420569e+01 1.4157676615038277e+00 0 0 0
113 1 2.0692321126431665e+01 -1.1153089608118787e+01 2.5935728825579758e+01 0 0 -1
114 1 2.2006985987781079e+01 -9.9526919317451483e+00 1.2455571682925015e-01 0 0 0
80 1 2.4688484775646661e+01 -1.2569873614181402e+01 7.9191327482430643e-02 0 0 0
117 1 2.3387363257095213e+01 -1.1314923268188094e+01 1.4669087010705049e+00 0 0 0
83 1 -1.0146161281129784e+00 -8.5352537716920587e+00 1.3725015605311368e+00 0 0 0
87 1 1.5372165380080771e+00 -8.6895854675139610e+00 2.6003468599339669e+01 0 0 -1
91 1 4.3923499990732005e+00 -8.5810568941829164e+00 1.5606090924035994e+00 0 0 0
88 1 2.8964049544011976e+00 -7.3110775443660154e+00 1.6769746067840685e-01 0 0 0
95 1 7.0188760712577469e+00 -8.5495989646741357e+00 2.5925687512218555e+01 0 0 -1
96 1 8.3017455611131172e+00 -7.2413861463971543e+00 1.8665777447428530e-01 0 0 0
99 1 9.8229340394669897e+00 -8.5434969454265612e+00 1.4319753005094153e+00 0 0 0
103 1 1.2634760686731413e+01 -8.5535713586524498e+00 2.5924435576078700e+01 0 0 -1
104 1 1.3943760753001170e+01 -7.1342036347554849e+00 8.3418907841338930e-02 0 0 0
107 1 1.5187877568373359e+01 -8.5645307873830809e+00 1.3637124762881063e+00 0 0 0
111 1 1.8078623880561370e+01 -8.4844955937644855e+00 2.6012683320469890e+01 0 0 -1
112 1 1.9230095947645566e+01 -7.0940819131227553e+00 1.8845167764531981e-01 0 0 0
115 1 2.0667566567543165e+01 -8.5917674405880629e+00 1.4761129030291809e+00 0 0 0
119 1 2.3352757059320524e+01 -8.4688607478049391e+00 2.6072339395118224e+01 0 0 -1
120 1 2.4800286411786384e+01 -7.0809684892284563e+00 9.7542426104945193e-02 0 0 0
121 1 -1.0592783899160831e+00 -5.7518849355479063e+00 2.6074757753887152e+01 0 0 -1
125 1 1.6810267956046927e+00 -5.6927723292262860e+00 1.5012801196782541e+00 0 0 0
122 1 3.2076813420309425e-01 -4.1894950983733770e+00 1.1630399334483785e-01 0 0 0
129 1 4.4932176509892274e+00 -6.0182974620062133e+00 2.6064755416644402e+01 0 0 -1
133 1 7.0450721075243585e+00 -5.9670650476097578e+00 1.6991086236554449e+00 0 0 0
130 1 5.7721004334522421e+00 -4.6286351333605484e+00 2.9515658622617030e-01 0 0 0
137 1 9.7875738840258464e+00 -5.8579414507752894e+00 -1.0041570483838205e+00 0 0 0
141 1 1.2502201713574806e+01 -5.8133785499451731e+00 1.4230794112275365e+00 0 0 0
138 1 1.1279361090852692e+01 -4.3957154308101671e+00 1.6296449214128628e-01 0 0 0
145 1 1.5229552943457781e+01 -5.7789367914957177e+00 2.6008620045974389e+01 0 0 -1
146 1 1.6597045556844627e+01 -4.4114944050254463e+00 3.5490499335805795e-02 0 0 0
149 1 1.7841255594475498e+01 -5.6915628353872423e+00 1.5302533977961117e+00 0 0 0
153 1 2.0576349807562892e+01 -5.6939636049395839e+00 2.6074190268285747e+01 0 0 -1
154 1 2.1972615934826528e+01 -4.4167127948591718e+00 2.4910748532718796e-01 0 0 0
157 1 2.3416255951277805e+01 -5.8463751133601596e+00 1.5614567697898154e+00 0 0 0
123 1 2.6082519596942348e+01 -2.9560460373343229e+00 1.5035982538286392e+00 -1 0 0
127 1 1.6511495212121226e+00 -2.9436467283812764e+00 2.5953538398075160e+01 0 0 -1
131 1 4.5256106310881812e+00 -3.0963974901926550e+00 1.5705911557709364e+00 0 0 0
128 1 2.9528851457930960e+00 -1.7704815125215898e+00 2.9411152296471721e-01 0 0 0
135 1 7.0215039068958935e+00 -3.0880560761302127e+00 2.6041262515533354e+01 0 0 -1
139 1 9.8492291876565652e+00 -3.0905017353261779e+00 1.5409641676497325e+00 0 0 0
136 1 8.4613819727846007e+00 -1.7867366054226217e+00 2.1294415638728198e-01 0 0 0
143 1 1.2629722104975588e+01 -3.2846342172391876e+00 2.5885727117018074e+01 0 0 -1
144 1 1.3948278176776785e+01 -1.7878767533212585e+00 1.6188281637929437e-02 0 0 0
147 1 1.5163883537684010e+01 -3.1404930600733016e+00 1.4914194941227943e+00 0 0 0
151 1 1.7922072940157239e+01 -3.0671643692109365e+00 2.5807569199120444e+01 0 0 -1
152 1 1.9204647355631071e+01 -1.6695331552429520e+00 5.6813734040254762e-02 0 0 0
155 1 2.0591003556173966e+01 -3.0366004307159744e+00 1.5041700243236371e+00 0 0 0
159 1 2.3482722027319014e+01 -3.1338511335171058e+00 2.6088142083012102e+01 0 0 -1
160 1 2.4818685038228317e+01 -1.6403706266820020e+00 7.1409900120468314e-02 0 0 0
161 1 -1.0751336269423684e+00 -3.5516804435365446e-01 2.5896753343791012e+01 0 0 -1
162 1 2.2847880737245474e-01 9.9383676516153063e-01 9.2563671131163830e-02 0 0 0
165 1 1.6567378856014663e+00 -2.9384888693540551e-01 1.4991549510002369e+00 0 0 0
163 1 2.6054616218460410e+01 2.2730628060319913e+00 1.5125029983674945e+00 -1 0 0
167 1 1.6074951751430706e+00 2.3763938502509654e+00 2.6080265024513896e+01 0 0 -1
169 1 4.1194296315123129e+00 -3.3426110302023948e-01 2.5928774114222492e+01 0 0 -1
171 1 4.3172331138618167e+00 2.4642650903817374e+00 1.4483703597424096e+00 0 0 0
170 1 5.6099592439718879e+00 9.1633599850913316e-01 1.7540653998753189e-01 0 0 0
173 1 6.9677397713200824e+00 -3.2369907923505714e-01 1.5005913765000334e+00 0 0 0
175 1 7.0112878014864783e+00 2.2104953528424192e+00 2.6007631584503976e+01 0 0 -1
177 1 9.7263137948499470e+00 -3.9451682662540533e-01 2.5929707308858845e+01 0 0 -1
179 1 9.8496901787207243e+00 2.2641238581660006e+00 1.4423255405122071e+00 0 0 0
178 1 1.1120634214151529e+01 1.0232127975420391e+00 -5.7076150177244690e-02 0 0 0
181 1 1.2521054306898675e+01 -3.7769686211820003e-01 1.3992775596830553e+00 0 0 0
183 1 1.2471467545128796e+01 2.4441445604876231e+00 2.5908183549085706e+01 0 0 -1
185 1 1.5332857209968559e+01 -3.7353400952674426e-01 2.5828962300850900e+01 0 0 -1
186 1 1.6545614184507787e+01 1.0812675888260570e+00 1.0803764328656573e-01 0 0 0
187 1 1.5187714942325680e+01 2.3422291113106342e+00 1.5689885216859620e+00 0 0 0
189 1 1.7930456569671492e+01 -4.2600497379757846e-01 1.4854637087386446e+00 0 0 0
191 1 1.8088145277200557e+01 2.4065366562921784e+00 2.6006580014588526e+01 0 0 -1
193 1 2.0619646682693435e+01 -4.5540962727242734e-01 2.5964602731746215e+01 0 0 -1
194 1 2.1923527095033997e+01 1.0379529323983239e+00 6.0673124827568731e-02 0 0 0
195 1 2.0628069971556815e+01 2.3048897457107516e+00 1.4939423766294664e+00 0 0 0
197 1 2.3268910919075335e+01 -3.1957994278358448e-01 1.4156513497349472e+00 0 0 0
199 1 2.3278076445699977e+01 2.4570628900562856e+00 2.5999698754017661e+01 0 0 -1
201 1 2.6045420804934029e+01 5.0829357256871246e+00 2.5867959989459070e+01 -1 0 -1
205 1 1.5067643351934117e+00 5.1349622889721749e+00 1.4786828726715304e+00 0 0 0
168 1 3.0356512688144912e+00 3.7728252342773185e+00 1.2557853515685077e-01 0 0 0
209 1 4.3195974936726200e+00 5.1126061131224558e+00 2.5857691296171627e+01 0 0 -1
213 1 7.0988646423735329e+00 5.1106289304953725e+00 1.4790963682158722e+00 0 0 0
176 1 8.3841991839440109e+00 3.7017633473383422e+00 1.4482572933382043e-01 0 0 0
217 1 9.7247849623577025e+00 5.0773356244246042e+00 2.5958909182995050e+01 0 0 -1
184 1 1.3850397990395592e+01 3.6393183308239299e+00 9.3141507974977653e-02 0 0 0
221 1 1.2619317948320575e+01 5.1969774260114532e+00 1.3775477698512133e+00 0 0 0
225 1 1.5044516090824919e+01 4.9645321791234105e+00 2.5882638160062225e+01 0 0 -1
192 1 1.9307926429779474e+01 3.6530411461255392e+00 1.7844606287473366e-01 0 0 0
229 1 1.7845686751529385e+01 4.9956980713773582e+00 1.4908056387398041e+00 0 0 0
233 1 2.0674029746379244e+01 4.9821377645131300e+00 2.6008784388806252e+01 0 0 -1
200 1 2.4711634061041053e+01 3.7338462036098221e+00 1.2698470873424850e-01 0 0 0
237 1 2.3391582853027305e+01 5.0809551408827058e+00 1.4663236655329368e+00 0 0 0
202 1 2.5575305128083536e-01 6.4978102101258619e+00 8.4594628507956682e-02 0 0 0
203 1 2.6089748266657018e+01 7.8158776436094017e+00 1.5575825794194034e+00 -1 0 0
207 1 1.6439649534817879e+00 7.8701955877828338e+00 2.5843569989570124e+01 0 0 -1
211 1 4.4980000789344485e+00 7.9400659796934683e+00 1.4054825682030974e+00 0 0 0
210 1 5.8040640489380655e+00 6.3878392885064557e+00 1.2199016980267895e-01 0 0 0
215 1 7.0265765805474345e+00 7.8088247187546198e+00 2.5819751180477684e+01 0 0 -1
219 1 9.7233013312959535e+00 7.6722017846079638e+00 1.4679956631444613e+00 0 0 0
218 1 1.1125801610706828e+01 6.4154775981747054e+00 5.3526825776060161e-02 0 0 0
223 1 1.2390625696449213e+01 7.8208223106274035e+00 2.5811018765682654e+01 0 0 -1
227 1 1.5231646047629747e+01 7.7941748562876665e+00 1.4425171354070387e+00 0 0 0
226 1 1.6393938690466520e+01 6.3756505476992675e+00 4.4692339349692830e-03 0 0 0
231 1 1.7835956289090152e+01 7.8212651717884958e+00 2.6015878366138956e+01 0 0 -1
234 1 2.2095398724481864e+01 6.5043106692905193e+00 7.3778785074361156e-02 0 0 0
235 1 2.0714996700260869e+01 7.7465696055677356e+00 1.4513173320088140e+00 0 0 0
239 1 2.3522988684201827e+01 7.8145975444692306e+00 2.5883392445666942e+01 0 0 -1
241 1 2.6089645964579589e+01 1.0490343406602076e+01 2.5935399295984979e+01 -1 0 -1
245 1 1.5730400282663464e+00 1.0300713736576354e+01 1.4639919869805305e+00 0 0 0
242 1 2.7088054058203553e-01 1.1687393780705241e+01 1.2987105885186409e-01 0 0 0
249 1 4.4867931413273316e+00 1.0673508888213085e+01 2.5817264166647249e+01 0 0 -1
208 1 3.0669762440174742e+00 9.1994724149772260e+00 9.2391336110754854e-03 0 0 0
253 1 7.0090417646632979e+00 1.0430163618040455e+01 1.4122736081013985e+00 0 0 0
250 1 5.8937300510816364e+00 1.1890579002778532e+01 4.4607990789379388e-02 0 0 0
216 1 8.3949748829008044e+00 9.1822561060830576e+00 -7.2510891215045351e-02 0 0 0
257 1 9.7439291973741309e+00 1.0541177125749600e+01 2.5836447764306641e+01 0 0 -1
261 1 1.2386897261200138e+01 1.0516850717287536e+01 1.3754900921178075e+00 0 0 0
224 1 1.3724867825445520e+01 9.1923467798636871e+00 2.8256657368171536e-02 0 0 0
258 1 1.1018487277058398e+01 1.1908513473653668e+01 5.4357319389237796e-02 0 0 0
265 1 1.5095932302295758e+01 1.0479054676659926e+01 2.5907245307072856e+01 0 0 -1
266 1 1.6480790604023305e+01 1.1813572952556756e+01 1.3923254452952644e-01 0 0 0
269 1 1.7999849254591393e+01 1.0509405792616302e+01 1.5561221537368877e+00 0 0 0
232 1 1.9292314729728705e+01 9.0466369089588206e+00 1.0230220216920925e-01 0 0 0
273 1 2.0616636275002637e+01 1.0546978085415338e+01 2.6003194690197422e+01 0 0 -1
274 1 2.2099342906679784e+01 1.1789138513612871e+01 2.6033293338467467e-01 0 0 0
277 1 2.3483821846831649e+01 1.0481720949334500e+01 1.5955015246926265e+00 0 0 0
240 1 2.4766007566006852e+01 9.1240482833003806e+00 4.8556048142188148e-02 0 0 0
16253 1 7.0393208746232077e+00 1.0540088433283474e+01 2.3051025205721526e+01 0 0 0
4007 1 1.8332151921987605e+00 -1.9418267702561764e+01 4.2828600251569924e+00 0 0 0
16212 1 5.6105172742174760e+00 9.2726611270752226e+00 2.4437055775948007e+01 0 0 0
6 1 2.9823126204668124e+00 -2.0894788361102865e+01 2.9003421449247138e+00 0 0 0
4015 1 7.1652265829034070e+00 -1.9537678201111131e+01 4.2419305760854966e+00 0 0 0
14 1 8.5098107149526960e+00 -2.0807121121261385e+01 2.8964579212446169e+00 0 0 0
16245 1 1.5456828762637171e+00 1.0554622667252957e+01 2.3151321742992398e+01 0 0 0
22 1 1.4094996153538798e+01 -2.0876932932520184e+01 3.0383779704445049e+00 0 0 0
4023 1 1.2745991207163183e+01 -1.9409731844086636e+01 4.3312858116134967e+00 0 0 0
16204 1 2.7597336237838838e-01 9.2010568524821874e+00 2.4489329202891660e+01 0 0 0
4031 1 1.8005876378176112e+01 -1.9493105988005059e+01 4.3291877515526647e+00 0 0 0
30 1 1.9377980307960204e+01 -2.0859322868834607e+01 2.9772279857112869e+00 0 0 0
16238 1 2.4761988574651770e+01 6.4631748101596243e+00 2.4594295854172067e+01 0 0 0
38 1 2.4702082567511841e+01 -2.0876825279941102e+01 2.9321039127349691e+00 0 0 0
4039 1 2.3472810215475242e+01 -1.9563889520552429e+01 4.3059981779451650e+00 0 0 0
4041 1 -1.0203448698891593e+00 -1.6789178195930006e+01 4.3129636946784933e+00 0 0 0
4 1 3.1772277384027214e-01 -1.8069423376281851e+01 2.8371976093506790e+00 0 0 0
4049 1 4.4377742543479837e+00 -1.6756555478636944e+01 4.3621631049295981e+00 0 0 0
12 1 5.6191192437580266e+00 -1.8251506034260363e+01 2.9207369121817881e+00 0 0 0
4057 1 9.8015747578516610e+00 -1.6628284159013980e+01 4.2887131437320081e+00 0 0 0
20 1 1.1320475692460860e+01 -1.8011114972601458e+01 3.0074382547663649e+00 0 0 0
4065 1 1.5301742758495022e+01 -1.6764315950480828e+01 4.3600652142955383e+00 0 0 0
28 1 1.6650613602423082e+01 -1.8184282717435295e+01 2.9176322563006236e+00 0 0 0
4073 1 2.0701728260190372e+01 -1.6776300538106931e+01 4.3380852177397999e+00 0 0 0
36 1 2.2015784662655864e+01 -1.8146736197844948e+01 2.9989904619763630e+00 0 0 0
4047 1 1.7872815992698807e+00 -1.4041472369448515e+01 4.1712507966141006e+00 0 0 0
46 1 3.0462765698559391e+00 -1.5339167747072455e+01 2.8195901620660742e+00 0 0 0
4055 1 7.1399778291030787e+00 -1.3949177191451783e+01 4.3300144153597202e+00 0 0 0
54 1 8.2743285163874631e+00 -1.5436494390221544e+01 2.8079186354371131e+00 0 0 0
62 1 1.4013766714569487e+01 -1.5474409407218735e+01 2.9181286548416883e+00 0 0 0
4063 1 1.2622528611512122e+01 -1.4014199060032626e+01 4.1319744686150992e+00 0 0 0
4071 1 1.8105760647681777e+01 -1.4011367159234570e+01 4.1988782314297888e+00 0 0 0
70 1 1.9369306504528399e+01 -1.5497179744053684e+01 2.8838575374060320e+00 0 0 0
78 1 2.4826497462558738e+01 -1.5435558226814202e+01 2.8307521652297329e+00 0 0 0
4079 1 2.3378598985465544e+01 -1.4128567246563973e+01 4.1361504845665058e+00 0 0 0
44 1 4.9896310022740753e-01 -1.2637139023298626e+01 2.8109222003727976e+00 0 0 0
4081 1 -9.8692206122749349e-01 -1.1359188379900878e+01 3.9879979236594609e+00 0 0 0
4089 1 4.3333047680076433e+00 -1.1226134754516837e+01 4.2888965294783397e+00 0 0 0
86 1 3.0613500875263440e+00 -9.8756626204624283e+00 2.8306081201663869e+00 0 0 0
52 1 5.7122376799786689e+00 -1.2642901817211619e+01 2.9777210929137223e+00 0 0 0
94 1 8.5755948849135191e+00 -9.8472593772054982e+00 2.8776146644033505e+00 0 0 0
4097 1 9.9043578453127381e+00 -1.1276082486616275e+01 4.3040604000023439e+00 0 0 0
60 1 1.1104117096272212e+01 -1.2685296390253333e+01 2.8325323630373545e+00 0 0 0
102 1 1.3913385672622312e+01 -1.0001613621506642e+01 2.7874049663624310e+00 0 0 0
68 1 1.6670972857613677e+01 -1.2716131998776818e+01 2.7241779437336087e+00 0 0 0
4105 1 1.5392529524018475e+01 -1.1477201921943989e+01 4.1252474308062155e+00 0 0 0
110 1 1.9300526335577182e+01 -1.0028978925136908e+01 2.8397879778656638e+00 0 0 0
76 1 2.1960288327375849e+01 -1.2642161733558334e+01 2.7587172891827145e+00 0 0 0
4113 1 2.0769151139959067e+01 -1.1357092828194622e+01 4.2678455594321303e+00 0 0 0
118 1 2.4799854459459773e+01 -9.9703201470982012e+00 2.7674432886593094e+00 0 0 0
84 1 2.5742275190179065e-01 -7.2115826784631443e+00 2.8708426954549022e+00 0 0 0
4087 1 1.6277670975913403e+00 -8.5234241740172116e+00 4.2622662696284195e+00 0 0 0
92 1 5.7845870582429288e+00 -7.2929558477315668e+00 3.0013241614496908e+00 0 0 0
4095 1 7.1138653495228743e+00 -8.5757187665470873e+00 4.3468692684255661e+00 0 0 0
100 1 1.1277603688209169e+01 -7.1997482464857061e+00 2.8621867453387910e+00 0 0 0
4103 1 1.2654999069536876e+01 -8.5346885626054245e+00 4.2132802031868097e+00 0 0 0
108 1 1.6552246256744027e+01 -7.2083386201276962e+00 2.8136355085678026e+00 0 0 0
4111 1 1.8004367375076683e+01 -8.5446116983551619e+00 4.1898913141823906e+00 0 0 0
116 1 2.2098360564509843e+01 -7.2968527978589828e+00 2.7888117942027364e+00 0 0 0
4119 1 2.3429939790952176e+01 -8.5700740166341678e+00 4.1868671232978523e+00 0 0 0
4121 1 -1.0849668853217327e+00 -5.9024152563837458e+00 4.3180429342856383e+00 0 0 0
4129 1 4.5724143223383473e+00 -5.7907823589256058e+00 4.1977322927267089e+00 0 0 0
126 1 3.0879240521281535e+00 -4.5009153381504907e+00 2.8242717435116376e+00 0 0 0
4137 1 9.8372614701426642e+00 -5.8343298589837671e+00 4.2536517571587460e+00 0 0 0
134 1 8.5053818598347917e+00 -4.5525769465212331e+00 2.9268530831473423e+00 0 0 0
142 1 1.3871755912572739e+01 -4.6329594004916235e+00 2.8174863628715627e+00 0 0 0
4145 1 1.5325292294870286e+01 -5.8702220520920987e+00 4.1949648912141217e+00 0 0 0
150 1 1.9275512874994540e+01 -4.4647338516907835e+00 2.8761299425027667e+00 0 0 0
4153 1 2.0810267512926178e+01 -5.8098964783662792e+00 4.1763747440645247e+00 0 0 0
158 1 2.5021874972025348e+01 -4.5662094832098443e+00 2.9020980140002943e+00 0 0 0
4127 1 1.6030921978227766e+00 -3.0799939450723626e+00 4.1395400993643561e+00 0 0 0
124 1 3.0540684372401739e-01 -1.6220869016557411e+00 3.0369800131699027e+00 0 0 0
4135 1 7.2327017860778433e+00 -3.0676089869736058e+00 4.2719292864468201e+00 0 0 0
132 1 5.7352159621203436e+00 -1.6993652284616814e+00 2.9100187686567445e+00 0 0 0
4143 1 1.2648226211853581e+01 -3.2415239685444268e+00 4.2421935087513605e+00 0 0 0
140 1 1.1312144358104002e+01 -1.6672321873090976e+00 2.8827947460738081e+00 0 0 0
148 1 1.6559966571310770e+01 -1.7202239837648057e+00 2.9365049819597551e+00 0 0 0
4151 1 1.7885010305768809e+01 -3.1264410828927356e+00 4.2693654929507163e+00 0 0 0
156 1 2.2028978785148176e+01 -1.7340264743358356e+00 2.8172941307922090e+00 0 0 0
4159 1 2.3523355726565136e+01 -3.1272274788172894e+00 4.1574678660766944e+00 0 0 0
4161 1 2.6066568145714704e+01 -3.5818474475244610e-01 4.3427941272327661e+00 -1 0 0
4167 1 1.6171716661701800e+00 2.2025932742704035e+00 4.2115986712215996e+00 0 0 0
4169 1 4.3593414679795739e+00 -3.5932401965324728e-01 4.3742060093052402e+00 0 0 0
166 1 3.1565563343401322e+00 1.0292750075088428e+00 2.8375338975286257e+00 0 0 0
4175 1 7.0797712470749348e+00 2.3425673981344617e+00 4.1898294719070366e+00 0 0 0
174 1 8.4906756243424741e+00 9.4601263538361058e-01 2.8756260630492081e+00 0 0 0
4177 1 9.8354102482763146e+00 -5.1658572724234797e-01 4.3258327212088998e+00 0 0 0
182 1 1.3851642786811979e+01 9.4105959752090496e-01 2.8831875215974376e+00 0 0 0
4183 1 1.2478525306640062e+01 2.4184185425131219e+00 4.1586642808926744e+00 0 0 0
4185 1 1.5222400440245064e+01 -4.2527102095214192e-01 4.2674117890571299e+00 0 0 0
190 1 1.9267541847102795e+01 9.2179812002212669e-01 2.8893647715405018e+00 0 0 0
4191 1 1.7941469250777562e+01 2.4094915332603861e+00 4.1669036914558939e+00 0 0 0
4193 1 2.0594789699924323e+01 -4.9482726339115024e-01 4.1676440765363107e+00 0 0 0
198 1 2.4740932056789834e+01 9.6598671592899088e-01 2.8989724151508085e+00 0 0 0
4199 1 2.3293397691799964e+01 2.2214217198536468e+00 4.3732776069314259e+00 0 0 0
164 1 2.1062665675243566e-01 3.5673237296209033e+00 2.8916598085601368e+00 0 0 0
4201 1 2.6052845642186274e+01 4.9353350747060674e+00 4.2354456907889864e+00 -1 0 0
4209 1 4.3730007454685378e+00 5.0239922483431352e+00 4.1028188210222778e+00 0 0 0
172 1 5.8000699095434571e+00 3.7965371962502279e+00 2.7854875968944430e+00 0 0 0
4217 1 9.8005785491295025e+00 5.0160812494450582e+00 4.1847731709672322e+00 0 0 0
180 1 1.1186939248881750e+01 3.6651200887037683e+00 2.7176018201389804e+00 0 0 0
188 1 1.6539677005625663e+01 3.8300237564531665e+00 2.9404666062049953e+00 0 0 0
4225 1 1.5207852685066593e+01 5.1429427484139563e+00 4.1997667220672668e+00 0 0 0
196 1 2.2104675401353997e+01 3.5696161956209460e+00 2.7879727987177656e+00 0 0 0
4233 1 2.0834002294564321e+01 5.0605137099043409e+00 4.1527519234496548e+00 0 0 0
4207 1 1.7836657680800985e+00 7.6351818106027238e+00 4.1911069946485782e+00 0 0 0
206 1 3.1006169203600664e+00 6.4580401886969403e+00 2.6965761076193289e+00 0 0 0
4215 1 7.0239118151512816e+00 7.8012593455009709e+00 4.2609948332263148e+00 0 0 0
214 1 8.3271049831263593e+00 6.4587757738193572e+00 2.8494011571852331e+00 0 0 0
222 1 1.3905756628997535e+01 6.5421272070245049e+00 2.8852030476189481e+00 0 0 0
4223 1 1.2518018924358437e+01 7.8690077449501148e+00 4.1871280388393810e+00 0 0 0
4231 1 1.8113286384459183e+01 7.8725428668828314e+00 4.2346784671096023e+00 0 0 0
230 1 1.9272581835281713e+01 6.4212076257433850e+00 2.8415543129277685e+00 0 0 0
238 1 2.4805693921756074e+01 6.4288198135535968e+00 2.9418223160809882e+00 0 0 0
4239 1 2.3384081516478599e+01 7.7586388929326944e+00 4.2726275453304536e+00 0 0 0
4241 1 -1.0660579803638568e+00 1.0590028080319254e+01 4.3491483289911450e+00 0 0 0
204 1 3.3993618852502455e-01 9.1050678785683843e+00 2.9818289271366729e+00 0 0 0
4249 1 4.4276517800572144e+00 1.0452473378556208e+01 4.2162128286925498e+00 0 0 0
246 1 3.0296428268562199e+00 1.1806584193900994e+01 2.8216681272798350e+00 0 0 0
212 1 5.7718902260416760e+00 9.1439855311430307e+00 2.8474110478459997e+00 0 0 0
4257 1 9.7051403547030457e+00 1.0557620389042308e+01 4.1238595832476612e+00 0 0 0
254 1 8.3717071641235705e+00 1.1860959232299837e+01 2.7899735019010983e+00 0 0 0
220 1 1.1056920560909258e+01 9.0566686486348562e+00 2.7328913754623239e+00 0 0 0
262 1 1.3773470125199410e+01 1.1853503173035033e+01 2.7392072000371432e+00 0 0 0
4265 1 1.5203773413571495e+01 1.0578009511677623e+01 4.2146771989301053e+00 0 0 0
228 1 1.6652383824110785e+01 9.1413069098236281e+00 2.8759426013166660e+00 0 0 0
270 1 1.9349007767429939e+01 1.1880174388965138e+01 2.8838648390583943e+00 0 0 0
4273 1 2.0687474205301985e+01 1.0593398412067163e+01 4.3038184203439185e+00 0 0 0
236 1 2.1999508148998892e+01 9.1015426580149796e+00 2.9160848313287229e+00 0 0 0
278 1 2.4906522517208032e+01 1.1933065136520103e+01 2.8212017522390394e+00 0 0 0
4002 1 2.0047429142732645e-01 -2.0817509934686804e+01 5.5207670459046065e+00 0 0 0
4003 1 -9.1583820450143361e-01 -1.9396837698375290e+01 6.9213550377742985e+00 0 0 0
16235 1 2.0637146236421064e+01 7.7550010082203720e+00 2.3194953998456132e+01 0 0 0
4011 1 4.4230502731274521e+00 -1.9420716287254503e+01 6.9343515846843093e+00 0 0 0
4010 1 5.6679500286439319e+00 -2.0833142886667620e+01 5.6957640200598778e+00 0 0 0
16230 1 1.9300346717575120e+01 6.3847791656614072e+00 2.4741385821700650e+01 0 0 0
4019 1 9.8794322782085011e+00 -1.9465404476997954e+01 6.9389331172523629e+00 0 0 0
4018 1 1.1365439419298010e+01 -2.0860285437848447e+01 5.7141341761842002e+00 0 0 0
16227 1 1.5241335262851711e+01 7.7243402264615915e+00 2.3179397925465246e+01 0 0 0
4027 1 1.5305764415591902e+01 -1.9486171537946777e+01 7.1308463180238801e+00 0 0 0
4026 1 1.6633018341357651e+01 -2.0823515643992469e+01 5.6872361699122314e+00 0 0 0
16222 1 1.3863821862078851e+01 6.5297339198944018e+00 2.4538702618605019e+01 0 0 0
4034 1 2.2170795240939004e+01 -2.0806235734924574e+01 5.6798235243288788e+00 0 0 0
4035 1 2.0710496195569256e+01 -1.9451812649259100e+01 6.9297552473902408e+00 0 0 0
16219 1 9.8140014468285823e+00 7.6920991940861230e+00 2.3141404888170282e+01 0 0 0
4045 1 1.7123330789761473e+00 -1.6694953161727696e+01 6.9679124752446713e+00 0 0 0
4008 1 3.0627258391703380e+00 -1.8038314831382774e+01 5.6593500735720701e+00 0 0 0
4053 1 7.0467459628332749e+00 -1.6840579595557109e+01 6.9878694823694953e+00 0 0 0
4016 1 8.4621975694268095e+00 -1.8081549315272198e+01 5.6401466606376118e+00 0 0 0
4061 1 1.2574205522058996e+01 -1.6634422748343862e+01 6.8902923599421317e+00 0 0 0
4024 1 1.3980077801043484e+01 -1.8118636149664262e+01 5.8087317890093741e+00 0 0 0
4069 1 1.8099880124829355e+01 -1.6691483801762683e+01 6.9486446644205833e+00 0 0 0
4032 1 1.9327823768410465e+01 -1.8107732850388647e+01 5.6279579443830201e+00 0 0 0
4077 1 2.3516638078709303e+01 -1.6763562251191363e+01 6.9297328761118093e+00 0 0 0
4040 1 2.4775894195710677e+01 -1.8195179062993351e+01 5.6020024584329118e+00 0 0 0
4042 1 3.1588580701723357e-01 -1.5360697994423548e+01 5.6113090432061119e+00 0 0 0
4043 1 -1.0192346206072875e+00 -1.4067065781666043e+01 6.8819671916302960e+00 0 0 0
4051 1 4.4108659442351046e+00 -1.4044434571394774e+01 6.9676025404577873e+00 0 0 0
4050 1 5.7918409052287521e+00 -1.5430370658565542e+01 5.5934974750704249e+00 0 0 0
4059 1 9.8803042149637808e+00 -1.4012599281605240e+01 6.9089972631286045e+00 0 0 0
4058 1 1.1245398644597962e+01 -1.5276924025297154e+01 5.5241239631408741e+00 0 0 0
4067 1 1.5321657800648504e+01 -1.3907673022105666e+01 6.9875685464223976e+00 0 0 0
4066 1 1.6688148055835139e+01 -1.5349220371163408e+01 5.6229154509461248e+00 0 0 0
4074 1 2.2098414429547127e+01 -1.5460932101719990e+01 5.6532128085234152e+00 0 0 0
4075 1 2.0839660267059141e+01 -1.4093544807080383e+01 6.9971473982100516e+00 0 0 0
4082 1 3.5243262021080679e-01 -9.9060166654723787e+00 5.4522467552676845e+00 0 0 0
4085 1 1.5048561893765000e+00 -1.1278993836532774e+01 6.8281349670616267e+00 0 0 0