LAMMPS data file via write_data, version 30 Jul 2016, timestep = 202

6400 atoms
1 atom types

-1.2158560000000000e+01 1.2158360000000000e+01 xlo xhi
-9.7295348980407354e+01 9.7295148980407347e+01 ylo yhi
-1.6312390000000001e+01 1.0874760000000000e+01 zlo zhi

Masses

1 28.0855

Atoms # atomic

6395 1 -1.0960097687933949e+01 -9.4780657242409958e+01 -1.3966061473830194e+01 0 0 0
2558 1 -4.2547859133297630e+00 -9.6586754570435474e+01 -1.5368449789149537e+01 0 0 0
3196 1 -2.4234101555394210e+00 -9.6142082725946409e+01 -1.3977103959626831e+01 0 0 0
3197 1 -6.1394400192600940e-01 -9.5452444859312351e+01 -1.5291741842649341e+01 0 0 0
3195 1 1.1983623120570028e+00 -9.4780657242407628e+01 -1.3966061473833406e+01 0 0 0
5758 1 7.9036740866706658e+00 -9.6586754570432788e+01 -1.5368449789151828e+01 0 0 0
6397 1 1.1544515998085638e+01 -9.5452444859315079e+01 -1.5291741842652492e+01 0 0 0
6396 1 9.7350498444669853e+00 -9.6142082725947660e+01 -1.3977103959633185e+01 0 0 0
1278 1 -9.1112233887492966e+00 -9.4276520244959741e+01 -1.5331882541190588e+01 0 0 0
1316 1 -7.2960289807367351e+00 -9.3651258240598366e+01 -1.3970187642153457e+01 0 0 0
1317 1 -5.4760420455493533e+00 -9.2995842171492512e+01 -1.5309479636818795e+01 0 0 0
1315 1 -3.6372885958648031e+00 -9.2428178977003597e+01 -1.3958315476720935e+01 0 0 0
4478 1 3.0472366112435716e+00 -9.4276520244960565e+01 -1.5331882541195128e+01 0 0 0
4517 1 6.6824179544529132e+00 -9.2995842171489230e+01 -1.5309479636821765e+01 0 0 0
4516 1 4.8624310192601117e+00 -9.3651258240596803e+01 -1.3970187642159663e+01 0 0 0
4515 1 8.5211714041403397e+00 -9.2428178976999092e+01 -1.3958315476721946e+01 0 0 0
37 1 -1.0329525203330061e+01 -9.0597992748057393e+01 -1.5322999492904531e+01 0 0 0
35 1 -8.5084727815640306e+00 -8.9989216681162844e+01 -1.3963136011176491e+01 0 0 0
3198 1 -1.8217224422943186e+00 -9.1818945201091068e+01 -1.5328067272138624e+01 0 0 0
3236 1 -2.0470591509921272e-03 -9.1192032552881656e+01 -1.3966456213964582e+01 0 0 0
3237 1 1.8289347966644607e+00 -9.0597992748060591e+01 -1.5322999492903921e+01 0 0 0
3235 1 3.6499872184329147e+00 -8.9989216681162205e+01 -1.3963136011176369e+01 0 0 0
6398 1 1.0336737557714189e+01 -9.1818945201086706e+01 -1.5328067272138329e+01 0 0 0
36 1 1.2156412940857059e+01 -9.1192032552877251e+01 -1.3966456213962093e+01 -1 0 0
38 1 -1.1548042979424681e+01 -8.6947470579134816e+01 -1.5323451836680675e+01 0 0 0
1318 1 -6.6869652646623425e+00 -8.9373876382315999e+01 -1.5322616398811912e+01 0 0 0
1956 1 -4.8602409571902783e+00 -8.8772403633894712e+01 -1.3963444535955608e+01 0 0 0
1957 1 -3.0374458913881579e+00 -8.8164092105567576e+01 -1.5323337757077127e+01 0 0 0
3238 1 6.1041702056090263e-01 -8.6947470579145786e+01 -1.5323451836678984e+01 0 0 0
1955 1 -1.2145865540452205e+00 -8.7552635024319159e+01 -1.3964384524889578e+01 0 0 0
4518 1 5.4714947353402446e+00 -8.9373876382312204e+01 -1.5322616398806860e+01 0 0 0
5157 1 9.1210141086226848e+00 -8.8164092105557160e+01 -1.5323337757071890e+01 0 0 0
5156 1 7.2982190428163110e+00 -8.8772403633886142e+01 -1.3963444535951673e+01 0 0 0
5155 1 1.0943873445969251e+01 -8.7552635024306952e+01 -1.3964384524887569e+01 0 0 0
676 1 -9.7247214141474032e+00 -8.6339600995304025e+01 -1.3963675927078992e+01 0 0 0
677 1 -7.9013830117912995e+00 -8.5730114286991324e+01 -1.5323018215877886e+01 0 0 0
1958 1 -4.2534908751811278e+00 -8.4515431604799886e+01 -1.5323310906963446e+01 0 0 0
675 1 -6.0770759300525867e+00 -8.5123294504384859e+01 -1.3963829844711675e+01 0 0 0
3876 1 2.4337385858376019e+00 -8.6339600995312352e+01 -1.3963675927075053e+01 0 0 0
3877 1 4.2570769881971753e+00 -8.5730114286995274e+01 -1.5323018215869523e+01 0 0 0
3875 1 6.0813840699401478e+00 -8.5123294504384589e+01 -1.3963829844706058e+01 0 0 0
5158 1 7.9049691248158132e+00 -8.4515431604795666e+01 -1.5323310906956641e+01 0 0 0
5795 1 -1.0940719181177442e+01 -8.2691504704134388e+01 -1.3963845406387559e+01 0 0 0
678 1 -9.1170565551425291e+00 -8.2083288515423845e+01 -1.5323206219524890e+01 0 0 0
2596 1 -2.4299334475625032e+00 -8.3906847328877177e+01 -1.3963944131341757e+01 0 0 0
2597 1 -6.0594858317472888e-01 -8.3299390602089730e+01 -1.5323259283794444e+01 0 0 0
2595 1 1.2177408188124565e+00 -8.2691504704142446e+01 -1.3963845406383307e+01 0 0 0
3878 1 3.0414034448460474e+00 -8.2083288515429672e+01 -1.5323206219520706e+01 0 0 0
5797 1 1.1552511416831546e+01 -8.3299390602081758e+01 -1.5323259283795013e+01 0 0 0
5796 1 9.7285265524408171e+00 -8.3906847328870242e+01 -1.3963944131341286e+01 0 0 0
76 1 -1.2156716362854857e+01 -7.9043869087349492e+01 -1.3963871443395981e+01 0 0 0
1356 1 -7.2932072872661058e+00 -8.1475565561410789e+01 -1.3963862788936247e+01 0 0 0
1357 1 -5.4694860988388969e+00 -8.0867666001837677e+01 -1.5323259153502326e+01 0 0 0
2598 1 -1.8219921669058097e+00 -7.9651775255795116e+01 -1.5323252115389893e+01 0 0 0
1355 1 -3.6457780325668301e+00 -8.0259617347081289e+01 -1.3963890338979299e+01 0 0 0
3276 1 1.7436371518370548e-03 -7.9043869087350743e+01 -1.3963871443393236e+01 0 0 0
4557 1 6.6889739011504759e+00 -8.0867666001838899e+01 -1.5323259153501686e+01 0 0 0
4556 1 4.8652527127234864e+00 -8.1475565561415280e+01 -1.3963862788933929e+01 0 0 0
4555 1 8.5126819674251628e+00 -8.0259617347081573e+01 -1.3963890338982052e+01 0 0 0
5798 1 1.0336467833086838e+01 -7.9651775255793694e+01 -1.5323252115393004e+01 0 0 0
77 1 -1.0332993830149851e+01 -7.8435890393389798e+01 -1.5323248502290514e+01 0 0 0
75 1 -8.5092339810909490e+00 -7.7828003854493573e+01 -1.3963880424350791e+01 0 0 0
1358 1 -6.6854991356470519e+00 -7.7220087700420393e+01 -1.5323263150950467e+01 0 0 0
1996 1 -4.8617672514603836e+00 -7.6612144419942794e+01 -1.3963887350962056e+01 0 0 0
3277 1 1.8254661698552284e+00 -7.8435890393390110e+01 -1.5323248502290062e+01 0 0 0
3275 1 3.6492260189148826e+00 -7.7828003854492408e+01 -1.3963880424353484e+01 0 0 0
4558 1 5.4729608643567955e+00 -7.7220087700416840e+01 -1.5323263150955926e+01 0 0 0
5196 1 7.2966927485421591e+00 -7.6612144419937806e+01 -1.3963887350967720e+01 0 0 0
78 1 -1.1549017288219343e+01 -7.4788384926289822e+01 -1.5323268318090498e+01 0 0 0
716 1 -9.7252781803629968e+00 -7.4180470903357318e+01 -1.3963890566873344e+01 0 0 0
1997 1 -3.0380243223811410e+00 -7.6004234184941453e+01 -1.5323265918347637e+01 0 0 0
3278 1 6.0944271178669307e-01 -7.4788384926293659e+01 -1.5323268318089575e+01 0 0 0
1995 1 -1.2142882967130553e+00 -7.5396318466072557e+01 -1.3963886642631724e+01 0 0 0
3916 1 2.4331818196467183e+00 -7.4180470903357147e+01 -1.3963890566877705e+01 0 0 0
5197 1 9.1204356776189908e+00 -7.6004234184935285e+01 -1.5323265918353989e+01 0 0 0
5195 1 1.0944171703282997e+01 -7.5396318466067115e+01 -1.3963886642633364e+01 0 0 0
717 1 -7.9015455533488650e+00 -7.3572550034787142e+01 -1.5323273174377603e+01 0 0 0
1998 1 -4.2540772797829094e+00 -7.2356706415572219e+01 -1.5323275198498184e+01 0 0 0
715 1 -6.0778118720947338e+00 -7.2964625633604143e+01 -1.3963894181984958e+01 0 0 0
2636 1 -2.4303429477315728e+00 -7.1748787086220133e+01 -1.3963895647413947e+01 0 0 0
2637 1 -6.0661037291833664e-01 -7.1140864069197050e+01 -1.5323276421591999e+01 0 0 0
3917 1 4.2569144466621607e+00 -7.3572550034783333e+01 -1.5323273174381324e+01 0 0 0
3915 1 6.0806481279164082e+00 -7.2964625633595247e+01 -1.3963894181989694e+01 0 0 0
5198 1 7.9043827202283792e+00 -7.2356706415560879e+01 -1.5323275198500882e+01 0 0 0
5837 1 1.1551849627088794e+01 -7.1140864069184715e+01 -1.5323276421591951e+01 0 0 0
5836 1 9.7281170522770353e+00 -7.1748787086206605e+01 -1.3963895647414297e+01 0 0 0
5835 1 -1.0941335751753904e+01 -7.0532945150974953e+01 -1.3963897169856631e+01 0 0 0
718 1 -9.1176021550212436e+00 -6.9925024766000575e+01 -1.5323277206728829e+01 0 0 0
1396 1 -7.2938686761975360e+00 -6.9317104366043893e+01 -1.3963897592858682e+01 0 0 0
1397 1 -5.4701348729085835e+00 -6.8709184237811399e+01 -1.5323276934499219e+01 0 0 0
2635 1 1.2171242482411102e+00 -7.0532945150984617e+01 -1.3963897169858381e+01 0 0 0
3918 1 3.0408578449764834e+00 -6.9925024766006374e+01 -1.5323277206727335e+01 0 0 0
4597 1 6.6883251270924369e+00 -6.8709184237808273e+01 -1.5323276934493924e+01 0 0 0
4596 1 4.8645913238009211e+00 -6.9317104366044035e+01 -1.3963897592857485e+01 0 0 0
117 1 -1.0333660030372618e+01 -6.6277505508540017e+01 -1.5323276351352192e+01 0 0 0
116 1 -1.2157393904170506e+01 -6.6885424638480004e+01 -1.3963897300485600e+01 0 0 0
2638 1 -1.8226674703043009e+00 -6.7493344716211681e+01 -1.5323276613598514e+01 0 0 0
1395 1 -3.6464011617214016e+00 -6.8101264710376739e+01 -1.3963897458771548e+01 0 0 0
3316 1 1.0660958238363990e-03 -6.6885424638488061e+01 -1.3963897300485426e+01 0 0 0
3317 1 1.8247999696218902e+00 -6.6277505508546511e+01 -1.5323276351349804e+01 0 0 0
4595 1 8.5120588382806677e+00 -6.8101264710369648e+01 -1.3963897458768040e+01 0 0 0
5838 1 1.0335792529699031e+01 -6.7493344716204192e+01 -1.5323276613593976e+01 0 0 0
115 1 -8.5099265686448682e+00 -6.5669585182238222e+01 -1.3963897126129114e+01 0 0 0
1398 1 -6.6861926959595186e+00 -6.5061665880033317e+01 -1.5323276168868730e+01 0 0 0
2036 1 -4.8624591143274678e+00 -6.4453746026910451e+01 -1.3963896948812000e+01 0 0 0
2037 1 -3.0387254492092617e+00 -6.3845826190893767e+01 -1.5323276090160105e+01 0 0 0
2035 1 -1.2149917333086033e+00 -6.3237906531242331e+01 -1.3963896856860613e+01 0 0 0
3315 1 3.6485334313476980e+00 -6.5669585182243665e+01 -1.3963897126122990e+01 0 0 0
4598 1 5.4722673040332870e+00 -6.5061665880037694e+01 -1.5323276168860811e+01 0 0 0
5237 1 9.1197345507826704e+00 -6.3845826190897817e+01 -1.5323276090154257e+01 0 0 0
5236 1 7.2960008856652898e+00 -6.4453746026914317e+01 -1.3963896948805052e+01 0 0 0
5235 1 1.0943468266684617e+01 -6.3237906531246217e+01 -1.3963896856859304e+01 0 0 0
118 1 -1.1549718114512746e+01 -6.2629986535315787e+01 -1.5323276154926361e+01 0 0 0
756 1 -9.7259844483462246e+00 -6.2022066664618109e+01 -1.3963896770018446e+01 0 0 0
757 1 -7.9022508485278955e+00 -6.1414146497025435e+01 -1.5323276269504623e+01 0 0 0
755 1 -6.0785171908878333e+00 -6.0806226368001212e+01 -1.3963896650721946e+01 0 0 0
3318 1 6.0874188549531805e-01 -6.2629986535311758e+01 -1.5323276154925535e+01 0 0 0
3956 1 2.4324755516613763e+00 -6.2022066664615963e+01 -1.3963896770014383e+01 0 0 0
3957 1 4.2562091514794735e+00 -6.1414146497024156e+01 -1.5323276269500781e+01 0 0 0
3955 1 6.0799428091190650e+00 -6.0806226368003443e+01 -1.3963896650718143e+01 0 0 0
5875 1 -1.0942042914794428e+01 -5.8374543759603156e+01 -1.3963896288400992e+01 0 0 0
2038 1 -4.2547836166310748e+00 -6.0198305971991680e+01 -1.5323276460067337e+01 0 0 0
2676 1 -2.4310500259491219e+00 -5.9590385419130349e+01 -1.3963896498915549e+01 0 0 0
2677 1 -6.0731645043518256e-01 -5.8982464736998566e+01 -1.5323276677787971e+01 0 0 0
2675 1 1.2164170852162657e+00 -5.8374543759598595e+01 -1.3963896288401978e+01 0 0 0
5238 1 7.9036763833723818e+00 -6.0198305971995062e+01 -1.5323276460066406e+01 0 0 0
5877 1 1.1551143549559800e+01 -5.8982464737004022e+01 -1.5323276677789611e+01 0 0 0
5876 1 9.7274099740512607e+00 -5.9590385419135906e+01 -1.3963896498914657e+01 0 0 0
758 1 -9.1183093660897914e+00 -5.7766622656821177e+01 -1.5323276899360794e+01 0 0 0
1436 1 -7.2945758688386153e+00 -5.7158701285284053e+01 -1.3963896055396845e+01 0 0 0
1437 1 -5.4708423705997866e+00 -5.6550779721798435e+01 -1.5323277107108487e+01 0 0 0
2678 1 -1.8233754447547561e+00 -5.5334936000683008e+01 -1.5323277306129183e+01 0 0 0
1435 1 -3.6471088943486150e+00 -5.5942857969216796e+01 -1.3963895834064441e+01 0 0 0
3958 1 3.0401506339251423e+00 -5.7766622656817923e+01 -1.5323276899361343e+01 0 0 0
4637 1 6.6876176294195773e+00 -5.6550779721798186e+01 -1.5323277107112890e+01 0 0 0
4636 1 4.8638841311806553e+00 -5.7158701285283350e+01 -1.3963896055400840e+01 0 0 0
4635 1 8.5113511056688580e+00 -5.5942857969217286e+01 -1.3963895834068298e+01 0 0 0
5878 1 1.0335084555258689e+01 -5.5334936000681601e+01 -1.5323277306132594e+01 0 0 0
157 1 -1.0334368582042705e+01 -5.4119091587503576e+01 -1.5323277468691304e+01 0 0 0
156 1 -1.2158102001239973e+01 -5.4727013880533470e+01 -1.3963895653780350e+01 0 0 0
155 1 -8.5106351747684297e+00 -5.3511169160522172e+01 -1.3963895515539891e+01 0 0 0
1438 1 -6.6869017847040437e+00 -5.2903246614926317e+01 -1.5323277594893302e+01 0 0 0
3356 1 3.5799875370634619e-04 -5.4727013880536653e+01 -1.3963895653781723e+01 0 0 0
3357 1 1.8240914179567140e+00 -5.4119091587509679e+01 -1.5323277468693050e+01 0 0 0
3355 1 3.6478248252376853e+00 -5.3511169160529626e+01 -1.3963895515546389e+01 0 0 0
4638 1 5.4715582153061808e+00 -5.2903246614934737e+01 -1.5323277594897943e+01 0 0 0
158 1 -1.1550428335289570e+01 -5.0471555578076050e+01 -1.5323277734307986e+01 0 0 0
2076 1 -4.8631684066127878e+00 -5.2295323963649508e+01 -1.3963895413532262e+01 0 0 0
2077 1 -3.0394350390733469e+00 -5.1687401231440830e+01 -1.5323277681760350e+01 0 0 0
3358 1 6.0803166470453163e-01 -5.0471555578082700e+01 -1.5323277734309471e+01 0 0 0
2075 1 -1.2157016817403803e+00 -5.1079478431592769e+01 -1.3963895349054955e+01 0 0 0
5277 1 9.1190249609384715e+00 -5.1687401231444227e+01 -1.5323277681762432e+01 0 0 0
5276 1 7.2952915933987095e+00 -5.2295323963656053e+01 -1.3963895413537864e+01 0 0 0
5275 1 1.0942758318268174e+01 -5.1079478431591539e+01 -1.3963895349055706e+01 0 0 0
796 1 -9.7266949946883212e+00 -4.9863632690098328e+01 -1.3963895313218382e+01 0 0 0
797 1 -7.9029616619464891e+00 -4.9255709775883275e+01 -1.5323277762699217e+01 0 0 0
2078 1 -4.2554949949614729e+00 -4.8039863923783997e+01 -1.5323277763928440e+01 0 0 0
795 1 -6.0792283275183232e+00 -4.8647786849734729e+01 -1.3963895302239626e+01 0 0 0
2716 1 -2.4317616678438649e+00 -4.7431941009712574e+01 -1.3963895310677247e+01 0 0 0
3996 1 2.4317650053089559e+00 -4.9863632690108879e+01 -1.3963895313219938e+01 0 0 0
3997 1 4.2554983380535329e+00 -4.9255709775897678e+01 -1.5323277762700041e+01 0 0 0
3995 1 6.0792316724812743e+00 -4.8647786849748769e+01 -1.3963895302238875e+01 0 0 0
5278 1 7.9029650050378235e+00 -4.8039863923797490e+01 -1.5323277763926239e+01 0 0 0
5916 1 9.7266983321524538e+00 -4.7431941009721470e+01 -1.3963895310675072e+01 0 0 0
5915 1 -1.0942755003335261e+01 -4.6216095269060723e+01 -1.3963895343991490e+01 0 0 0
798 1 -9.1190216627728571e+00 -4.5608172469722867e+01 -1.5323277688026655e+01 0 0 0
1476 1 -7.2952883155245285e+00 -4.5000249738038484e+01 -1.3963895406151224e+01 0 0 0
2717 1 -6.0802833671304901e-01 -4.6824018122304139e+01 -1.5323277738015268e+01 0 0 0
2715 1 1.2157049966737097e+00 -4.6216095269061469e+01 -1.3963895343989766e+01 0 0 0
3998 1 3.0394383372388587e+00 -4.5608172469727833e+01 -1.5323277688023367e+01 0 0 0
4676 1 4.8631716844859465e+00 -4.5000249738045945e+01 -1.3963895406143974e+01 0 0 0
5917 1 1.1550431663279888e+01 -4.6824018122308821e+01 -1.5323277738013772e+01 0 0 0
1477 1 -5.4715549612797520e+00 -4.4392327087545382e+01 -1.5323277603649730e+01 0 0 0
2718 1 -1.8240882214521106e+00 -4.3176482116871249e+01 -1.5323277479928869e+01 0 0 0
1475 1 -3.6478215982658728e+00 -4.3784404542932059e+01 -1.3963895505950036e+01 0 0 0
3396 1 -3.5483566897856613e-04 -4.2568559824982671e+01 -1.3963895642383433e+01 0 0 0
4677 1 6.6869050387283924e+00 -4.4392327087554108e+01 -1.5323277603643886e+01 0 0 0
4675 1 8.5106384017377614e+00 -4.3784404542939455e+01 -1.3963895505942968e+01 0 0 0
5918 1 1.0334371778544467e+01 -4.3176482116877033e+01 -1.5323277479927050e+01 0 0 0
196 1 1.2158105164322333e+01 -4.2568559824985364e+01 -1.3963895642382917e+01 -1 0 0
197 1 -1.0335081428897853e+01 -4.1960637705591928e+01 -1.5323277319830655e+01 0 0 0
195 1 -8.5113480186398647e+00 -4.1352715738221349e+01 -1.3963895821221774e+01 0 0 0
1478 1 -6.6876145847355941e+00 -4.0744793986592690e+01 -1.5323277123289019e+01 0 0 0
2116 1 -4.8638811310327394e+00 -4.0136872424656900e+01 -1.3963896041468669e+01 0 0 0
2117 1 -3.0401476811938655e+00 -3.9528951053891468e+01 -1.5323276918169574e+01 0 0 0
3397 1 1.8233785711174610e+00 -4.1960637705590678e+01 -1.5323277319826369e+01 0 0 0
3395 1 3.6471119813786754e+00 -4.1352715738222031e+01 -1.3963895821216539e+01 0 0 0
4678 1 5.4708454152838737e+00 -4.0744793986592320e+01 -1.5323277123283775e+01 0 0 0
5317 1 9.1183123188194415e+00 -3.9528951053888171e+01 -1.5323276918168784e+01 0 0 0
5316 1 7.2945788689857585e+00 -4.0136872424656012e+01 -1.3963896041463849e+01 0 0 0
198 1 -1.1551140697895582e+01 -3.8313108975614874e+01 -1.5323276699307641e+01 0 0 0
836 1 -9.7274071755238545e+00 -3.7705188295046419e+01 -1.3963896484284046e+01 0 0 0
837 1 -7.9036736404668071e+00 -3.7097267742361815e+01 -1.5323276484354389e+01 0 0 0
3398 1 6.0731930210164553e-01 -3.8313108975620047e+01 -1.5323276699305566e+01 0 0 0
2115 1 -1.2164141815620273e+00 -3.8921029952549667e+01 -1.3963896273912843e+01 0 0 0
4036 1 2.4310528244788228e+00 -3.7705188295051755e+01 -1.3963896484284399e+01 0 0 0
4037 1 4.2547863595386843e+00 -3.7097267742364707e+01 -1.5323276484354704e+01 0 0 0
5315 1 1.0942045818446736e+01 -3.8921029952545055e+01 -1.3963896273911798e+01 0 0 0
2118 1 -4.2562065236680571e+00 -3.5881427218889925e+01 -1.5323276296622319e+01 0 0 0
835 1 -6.0799401224311689e+00 -3.6489347347952638e+01 -1.3963896636438111e+01 0 0 0
2756 1 -2.4324729826939224e+00 -3.5273507052782328e+01 -1.3963896756614192e+01 0 0 0
2757 1 -6.0873937771721365e-01 -3.4665587181566636e+01 -1.5323276184931848e+01 0 0 0
4035 1 6.0785198775773521e+00 -3.6489347347954393e+01 -1.3963896636441076e+01 0 0 0
5318 1 7.9022534763404053e+00 -3.5881427218888170e+01 -1.5323276296625314e+01 0 0 0
5957 1 1.1549720622290810e+01 -3.4665587181561868e+01 -1.5323276184932041e+01 0 0 0
5956 1 9.7259870173141820e+00 -3.5273507052779486e+01 -1.3963896756617297e+01 0 0 0
5955 1 -1.0943465819568774e+01 -3.4057667186976765e+01 -1.3963896844844189e+01 0 0 0
838 1 -9.1197321664974247e+00 -3.3449747526418193e+01 -1.5323276122990201e+01 0 0 0
1516 1 -7.2959985630786024e+00 -3.2841827691332504e+01 -1.3963896938524863e+01 0 0 0
1517 1 -5.4722650452541393e+00 -3.2233907836791793e+01 -1.5323276204563630e+01 0 0 0
1515 1 -3.6485312348068968e+00 -3.1625988535199713e+01 -1.3963897118052078e+01 0 0 0
2755 1 1.2149941804246926e+00 -3.4057667186981512e+01 -1.3963896844845889e+01 0 0 0
4038 1 3.0387278334952113e+00 -3.3449747526423032e+01 -1.5323276122995750e+01 0 0 0
4717 1 6.6861949547392392e+00 -3.2233907836796526e+01 -1.5323276204570128e+01 0 0 0
4716 1 4.8624614369146482e+00 -3.2841827691337201e+01 -1.3963896938531120e+01 0 0 0
4715 1 8.5099287651859754e+00 -3.1625988535205138e+01 -1.3963897118056735e+01 0 0 0
237 1 -1.0335790522283297e+01 -2.9802228996948063e+01 -1.5323276654534080e+01 0 0 0
235 1 -8.5120568919706567e+00 -2.9194309002377594e+01 -1.3963897455808821e+01 0 0 0
2758 1 -1.8247978370136251e+00 -3.1018068206988531e+01 -1.5323276389802691e+01 0 0 0
3436 1 -1.0640250769876948e-03 -3.0410149077179494e+01 -1.3963897294828651e+01 0 0 0
3437 1 1.8226694777196810e+00 -2.9802228996941725e+01 -1.5323276654538734e+01 0 0 0
3435 1 3.6464031080304977e+00 -2.9194309002372055e+01 -1.3963897455811431e+01 0 0 0
5958 1 1.0333662162981069e+01 -3.1018068206994695e+01 -1.5323276389803489e+01 0 0 0
236 1 1.2157395974917728e+01 -3.0410149077186652e+01 -1.3963897294828010e+01 -1 0 0
1518 1 -6.6883232430068853e+00 -2.8586389471812279e+01 -1.5323276977878761e+01 0 0 0
2156 1 -4.8645894992364189e+00 -2.7978469342554352e+01 -1.3963897592743834e+01 0 0 0
2157 1 -3.0408560807858440e+00 -2.7370548938937759e+01 -1.5323277252272446e+01 0 0 0
2155 1 -1.2171225417223064e+00 -2.6762628552305092e+01 -1.3963897172607554e+01 0 0 0
4718 1 5.4701367569932096e+00 -2.8586389471810620e+01 -1.5323276977882600e+01 0 0 0
5357 1 9.1176039192102092e+00 -2.7370548938944733e+01 -1.5323277252272348e+01 0 0 0
5356 1 7.2938705007607076e+00 -2.7978469342555996e+01 -1.3963897592743407e+01 0 0 0
5355 1 1.0941337458271468e+01 -2.6762628552315391e+01 -1.3963897172605305e+01 0 0 0
238 1 -1.1551847978782270e+01 -2.6154709629714901e+01 -1.5323276469152512e+01 0 0 0
876 1 -9.7281154591616144e+00 -2.5546786610252784e+01 -1.3963895653352685e+01 0 0 0
877 1 -7.9043811827419832e+00 -2.4938867275746812e+01 -1.5323275247992356e+01 0 0 0
2158 1 -4.2569130142981138e+00 -2.3723023647448567e+01 -1.5323273225662424e+01 0 0 0
875 1 -6.0806466429001000e+00 -2.4330948054514032e+01 -1.3963894191142577e+01 0 0 0
3438 1 6.0661202122627556e-01 -2.6154709629702285e+01 -1.5323276469152704e+01 0 0 0
4076 1 2.4303445408476128e+00 -2.5546786610239547e+01 -1.3963895653351235e+01 0 0 0
4077 1 4.2540788172695372e+00 -2.4938867275736229e+01 -1.5323275247988628e+01 0 0 0
4075 1 6.0778133571107515e+00 -2.4330948054506361e+01 -1.3963894191136408e+01 0 0 0
5358 1 7.9015469857119713e+00 -2.3723023647446038e+01 -1.5323273225658081e+01 0 0 0
5995 1 -1.0944170416193471e+01 -2.1899255201182854e+01 -1.3963886658409027e+01 0 0 0
878 1 -9.1204344367105978e+00 -2.1291339474861854e+01 -1.5323265973138023e+01 0 0 0
2796 1 -2.4331804368250785e+00 -2.3115102775072017e+01 -1.3963890579284062e+01 0 0 0
2797 1 -6.0944137852939839e-01 -2.2507188745564001e+01 -1.5323268371142463e+01 0 0 0
2795 1 1.2142895838041667e+00 -2.1899255201176661e+01 -1.3963886658406459e+01 0 0 0
4078 1 3.0380255632911579e+00 -2.1291339474855207e+01 -1.5323265973130901e+01 0 0 0
5997 1 1.1549018621474980e+01 -2.2507188745568861e+01 -1.5323268371143776e+01 0 0 0
5996 1 9.7252795631835092e+00 -2.3115102775073197e+01 -1.3963890579279553e+01 0 0 0
1556 1 -7.2966915506652663e+00 -2.0683429234435156e+01 -1.3963887370052388e+01 0 0 0
1557 1 -5.4729597093561475e+00 -2.0075485945763013e+01 -1.5323263207448239e+01 0 0 0
2798 1 -1.8254650938852699e+00 -1.8859683237805211e+01 -1.5323248560509935e+01 0 0 0
1555 1 -3.6492249033977542e+00 -1.9467569785480784e+01 -1.3963880446782113e+01 0 0 0
4757 1 6.6855002906487684e+00 -2.0075485945759620e+01 -1.5323263207442642e+01 0 0 0
4756 1 4.8617684493387667e+00 -2.0683429234430186e+01 -1.3963887370046036e+01 0 0 0
4755 1 8.5092350966091352e+00 -1.9467569785479945e+01 -1.3963880446779486e+01 0 0 0
5998 1 1.0332994906120630e+01 -1.8859683237805864e+01 -1.5323248560510711e+01 0 0 0
277 1 -1.0336466829641168e+01 -1.7643798359050955e+01 -1.5323252175195428e+01 0 0 0
275 1 -8.5126809972546482e+00 -1.7035956260009304e+01 -1.3963890367828826e+01 0 0 0
1558 1 -6.6889729644225691e+00 -1.6427907594898240e+01 -1.5323259214927001e+01 0 0 0
2196 1 -4.8652518064503019e+00 -1.5820008026864336e+01 -1.3963862820698749e+01 0 0 0
3476 1 -1.7425975203177856e-03 -1.8251704537025063e+01 -1.3963871469168327e+01 0 0 0
3477 1 1.8219931703512235e+00 -1.7643798359049587e+01 -1.5323252175192135e+01 0 0 0
3475 1 3.6457790027374548e+00 -1.7035956260010039e+01 -1.3963890367826208e+01 0 0 0
4758 1 5.4694870355672185e+00 -1.6427907594900084e+01 -1.5323259214927635e+01 0 0 0
5396 1 7.2932081935399546e+00 -1.5820008026869550e+01 -1.3963862820700999e+01 0 0 0
276 1 1.2156717402486818e+01 -1.8251704537026328e+01 -1.3963871469171268e+01 -1 0 0
278 1 -1.1552510597904110e+01 -1.3996182955378895e+01 -1.5323259348269284e+01 0 0 0
916 1 -9.7285257598291093e+00 -1.3388726218748129e+01 -1.3963944167782333e+01 0 0 0
2197 1 -3.0414025691321758e+00 -1.5212285062211199e+01 -1.5323206282580021e+01 0 0 0
3478 1 6.0594940210036163e-01 -1.3996182955371195e+01 -1.5323259348269737e+01 0 0 0
2195 1 -1.2177399715095276e+00 -1.4604068864401023e+01 -1.3963845440699235e+01 0 0 0
4116 1 2.4299342401722508e+00 -1.3388726218742335e+01 -1.3963944167783366e+01 0 0 0
5397 1 9.1170574308576562e+00 -1.5212285062217580e+01 -1.5323206282583579e+01 0 0 0
5395 1 1.0940720028481838e+01 -1.4604068864408966e+01 -1.3963845440702917e+01 0 0 0
917 1 -7.9049683590354478e+00 -1.2780141930965929e+01 -1.5323310972830201e+01 0 0 0
2198 1 -4.2570762730138618e+00 -1.1565459226481160e+01 -1.5323018283158600e+01 0 0 0
915 1 -6.0813833293052530e+00 -1.2172279020801566e+01 -1.3963829882989399e+01 0 0 0
2836 1 -2.4337378952293793e+00 -1.0955972507096728e+01 -1.3963675966587132e+01 0 0 0
4117 1 4.2534916409598464e+00 -1.2780141930963188e+01 -1.5323310972837154e+01 0 0 0
4115 1 6.0770766706858685e+00 -1.2172279020803257e+01 -1.3963829882994611e+01 0 0 0
5398 1 7.9013837269737310e+00 -1.1565459226486814e+01 -1.5323018283165784e+01 0 0 0
6036 1 9.7247221047551946e+00 -1.0955972507106374e+01 -1.3963675966589951e+01 0 0 0
6035 1 -1.0943872804235035e+01 -9.7429384551027951e+00 -1.3964384565325631e+01 0 0 0
918 1 -9.1210134918812091e+00 -9.1314813608504863e+00 -1.5323337826400113e+01 0 0 0
1596 1 -7.2982184507360701e+00 -8.5231698200969017e+00 -1.3963444576841200e+01 0 0 0
1597 1 -5.4714941682058669e+00 -7.9216970603816712e+00 -1.5322616469210615e+01 0 0 0
2837 1 -6.1041635487141988e-01 -1.0348102911158746e+01 -1.5323451904894149e+01 0 0 0
2835 1 1.2145871957785206e+00 -9.7429384550906644e+00 -1.3964384565328031e+01 0 0 0
4118 1 3.0374465081286477e+00 -9.1314813608409828e+00 -1.5323337826405380e+01 0 0 0
4797 1 6.6869658317954102e+00 -7.9216970603794863e+00 -1.5322616469214655e+01 0 0 0
4796 1 4.8602415492691424e+00 -8.5231698200898158e+00 -1.3963444576844273e+01 0 0 0
6037 1 1.1548043645114335e+01 -1.0348102911170365e+01 -1.5323451904894487e+01 0 0 0
317 1 -1.0336737096168017e+01 -5.4766281934619139e+00 -1.5328067342057306e+01 0 0 0
316 1 -1.2156412451226730e+01 -6.1035408528485329e+00 -1.3966456252261430e+01 0 0 0
2838 1 -1.8289342804973987e+00 -6.6975806678523435e+00 -1.5322999563750958e+01 0 0 0
1595 1 -3.6499866768174600e+00 -7.3063567486883381e+00 -1.3963136052739580e+01 0 0 0
3516 1 2.0475487816527279e-03 -6.1035408528434196e+00 -1.3966456252263606e+01 0 0 0
3517 1 1.8217229038406575e+00 -5.4766281934575396e+00 -1.5328067342056988e+01 0 0 0
4795 1 8.5084733231783840e+00 -7.3063567486893195e+00 -1.3963136052738731e+01 0 0 0
6038 1 1.0329525719496127e+01 -6.6975806678567764e+00 -1.5322999563751061e+01 0 0 0
315 1 -8.5211709699247216e+00 -4.8673943992645778e+00 -1.3958315518203426e+01 0 0 0
1598 1 -6.6824175477627037e+00 -4.2997311927406230e+00 -1.5309479713122025e+01 0 0 0
2236 1 -4.8624306463628351e+00 -3.6443151165179466e+00 -1.3970187677325722e+01 0 0 0
2237 1 -3.0472362689569135e+00 -3.0190530956329007e+00 -1.5331882605642681e+01 0 0 0
3515 1 3.6372890300801886e+00 -4.8673943992603039e+00 -1.3958315518201195e+01 0 0 0
4798 1 5.4760424522389899e+00 -4.2997311927377400e+00 -1.5309479713118368e+01 0 0 0
5437 1 9.1112237310354516e+00 -3.0190530956339963e+00 -1.5331882605638432e+01 0 0 0
5436 1 7.2960293536335969e+00 -3.6443151165168257e+00 -1.3970187677319066e+01 0 0 0
318 1 -1.1544515711912407e+01 -1.8431284493560738e+00 -1.5291741914525556e+01 0 0 0
956 1 -9.7350496291987412e+00 -1.1534905607546524e+00 -1.3977103974514764e+01 0 0 0
957 1 -7.9036738353555087e+00 -7.0881874491274999e-01 -1.5368449769989024e+01 0 0 0
3518 1 6.1394428809814006e-01 -1.8431284493588720e+00 -1.5291741914521465e+01 0 0 0
2235 1 -1.1983619958388385e+00 -2.5149160718810899e+00 -1.3966061496323540e+01 0 0 0
2873 1 -4.3054438543225881e-01 -1.6213440144388484e-04 -1.6312289264608076e+01 0 0 0
4156 1 2.4234103708059891e+00 -1.1534905607562136e+00 -1.3977103974507132e+01 0 0 0
4157 1 4.2547861646414029e+00 -7.0881874490981045e-01 -1.5368449769987087e+01 0 0 0
5435 1 1.0960098004152631e+01 -2.5149160718790311e+00 -1.3966061496321196e+01 0 0 0
6073 1 1.1727915614542573e+01 -1.6213440144396136e-04 -1.6312289264607980e+01 -1 0 0
1280 1 -1.0334015912573081e+01 -9.6586754570675396e+01 -1.2649734788497275e+01 0 0 0
1242 1 -8.5026401550382893e+00 -9.6142082725734696e+01 -1.1258388959450214e+01 0 0 0
1279 1 -6.6931740019168826e+00 -9.5452444858628695e+01 -1.2573026842749393e+01 0 0 0
1281 1 -4.8808676881589932e+00 -9.4780657241820904e+01 -1.1247346474019237e+01 0 0 0
4480 1 1.8244440874016252e+00 -9.6586754570674984e+01 -1.2649734788497330e+01 0 0 0
4442 1 3.6558198449458885e+00 -9.6142082725737055e+01 -1.1258388959459541e+01 0 0 0
4479 1 5.4652859980746467e+00 -9.5452444858629732e+01 -1.2573026842754855e+01 0 0 0
4481 1 7.2775923118383181e+00 -9.4780657241819569e+01 -1.1247346474025720e+01 0 0 0
6399 1 -1.1555272045488952e+01 -9.2995842172048995e+01 -1.2590764636790313e+01 0 0 0
1 1 -9.7165185958983340e+00 -9.2428178977144739e+01 -1.1239600476719756e+01 0 0 0
3200 1 -3.0319933888188930e+00 -9.4276520244823317e+01 -1.2613167541376667e+01 0 0 0
3199 1 6.0318795450444884e-01 -9.2995842172049123e+01 -1.2590764636790698e+01 0 0 0
3162 1 -1.2167989806094175e+00 -9.3651258241160448e+01 -1.1251472642245147e+01 0 0 0
3201 1 2.4419414040979293e+00 -9.2428178977144242e+01 -1.1239600476723240e+01 0 0 0
6400 1 9.1264666111856290e+00 -9.4276520244823374e+01 -1.2613167541379564e+01 0 0 0
6362 1 1.0941661019396868e+01 -9.3651258241160079e+01 -1.1251472642245416e+01 0 0 0
1320 1 -7.9009524423695874e+00 -9.1818945200559938e+01 -1.2609352272181194e+01 0 0 0
1319 1 -4.2502952033462478e+00 -9.0597992747929140e+01 -1.2604284492983783e+01 0 0 0
1282 1 -6.0812770592669443e+00 -9.1192032552212012e+01 -1.1247741214110642e+01 0 0 0
1921 1 -2.4292427814926141e+00 -8.9989216681523061e+01 -1.1244421011137428e+01 0 0 0
4520 1 4.2575075576307393e+00 -9.1818945200558261e+01 -1.2609352272182086e+01 0 0 0
4482 1 6.0771829407366074e+00 -9.1192032552205774e+01 -1.1247741214111603e+01 0 0 0
4519 1 7.9081647966626649e+00 -9.0597992747921921e+01 -1.2604284492981410e+01 0 0 0
5121 1 9.7292172185185475e+00 -8.9989216681513611e+01 -1.1244421011134598e+01 0 0 0
2 1 -1.0939470957253471e+01 -8.8772403634047464e+01 -1.1244729536039340e+01 0 0 0
39 1 -9.1166758914530561e+00 -8.8164092105243128e+01 -1.2604622757015715e+01 0 0 0
641 1 -7.2938165541692550e+00 -8.7552635023786408e+01 -1.1245669524848177e+01 0 0 0
1960 1 -5.4688129795353477e+00 -8.6947470578930776e+01 -1.2604736836641802e+01 0 0 0
3240 1 -6.0773526454567817e-01 -8.9373876382902367e+01 -1.2603901398819199e+01 0 0 0
3202 1 1.2189890427346861e+00 -8.8772403634055081e+01 -1.1244729536039516e+01 0 0 0
3239 1 3.0417841085389341e+00 -8.8164092105247462e+01 -1.2604622757010507e+01 0 0 0
5160 1 6.6896470204651575e+00 -8.6947470578925902e+01 -1.2604736836633238e+01 0 0 0