
units 		metal
dimension	3
boundary	p	p	p
atom_style	atomic

##load structure
read_data lammps_data.0K.minimized
  orthogonal box = (-1.07737 -10.7737 -1.07737) to (26.0774 260.774 26.0774)
  1 by 16 by 1 MPI processor grid
  reading atoms ...
  10000 atoms
  reading velocities ...
  10000 velocities

##scale block and randomize velocities
print ${ave_SF}
print 1.00194195257394
1.00194195257394

change_box all x scale ${ave_SF} y scale ${ave_SF} z scale ${ave_SF} remap
change_box all x scale 1.00194195257394 y scale ${ave_SF} z scale ${ave_SF} remap
change_box all x scale 1.00194195257394 y scale 1.00194195257394 z scale ${ave_SF} remap
change_box all x scale 1.00194195257394 y scale 1.00194195257394 z scale 1.00194195257394 remap
  orthogonal box = (-1.10374 -10.7737 -1.07737) to (26.1037 260.774 26.0774)
  orthogonal box = (-1.10374 -11.0374 -1.07737) to (26.1037 261.037 26.0774)
  orthogonal box = (-1.10374 -11.0374 -1.10374) to (26.1037 261.037 26.1037)
velocity all create ${T} 4928459 rot yes mom yes dist gaussian
velocity all create 500 4928459 rot yes mom yes dist gaussian

#load potential
pair_style sw
pair_coeff * * pot/Si.sw Si
Reading potential file pot/Si.sw with DATE: 2007-06-11
mass * 28.0855

thermo ${thermo_save}
thermo 500
thermo_style custom time temp press
fix 1 all nvt temp ${T} ${T} 0.1
fix 1 all nvt temp 500 ${T} 0.1
fix 1 all nvt temp 500 500 0.1

##EQ RUN
run ${N_EQ}
run 5000
Neighbor list info ...
  1 neighbor list requests
  update every 1 steps, delay 10 steps, check yes
  max neighbors/atom: 2000, page size: 100000
  master list distance cutoff = 5.77118
  ghost atom cutoff = 5.77118
  binsize = 2.88559 -> bins = 10 95 10
Memory usage per processor = 2.40359 Mbytes
Time Temp Press 
           0          500   -2425.7354 
         0.5    410.49388   -1057.8473 
           1    525.06637     248.7885 
         1.5    490.28193   -186.20837 
           2    497.24438   -131.88909 
         2.5    479.36245   -82.520076 
           3    501.59789   -137.90265 
         3.5    501.18477 -0.036774715 
           4    492.55286   -64.540624 
         4.5    487.49717   -88.296794 
           5    504.69085    9.8873484 
Loop time of 25.3966 on 16 procs for 5000 steps with 10000 atoms

Performance: 17.010 ns/day, 1.411 hours/ns, 196.876 timesteps/s
99.7% CPU use with 16 MPI tasks x no OpenMP threads

MPI task timing breakdown:
Section |  min time  |  avg time  |  max time  |%varavg| %total
---------------------------------------------------------------
Pair    | 20.287     | 21.812     | 24.162     |  22.9 | 85.89
Neigh   | 0          | 0          | 0          |   0.0 |  0.00
Comm    | 0.25718    | 1.5466     | 3.5977     |  89.8 |  6.09
Output  | 0.00029206 | 0.00037627 | 0.0013604  |   1.3 |  0.00
Modify  | 0.82919    | 1.9006     | 2.5524     |  42.8 |  7.48
Other   |            | 0.1369     |            |       |  0.54

Nlocal:    625 ave 650 max 600 min
Histogram: 8 0 0 0 0 0 0 0 0 8
Nghost:    1585.25 ave 1618 max 1553 min
Histogram: 4 0 4 0 0 0 0 4 0 4
Neighs:    0 ave 0 max 0 min
Histogram: 16 0 0 0 0 0 0 0 0 0
FullNghs:  21250 ave 22100 max 20400 min
Histogram: 8 0 0 0 0 0 0 0 0 8

Total # of neighbors = 340000
Ave neighs/atom = 34
Neighbor list builds = 0
Dangerous builds = 0
#log output-2/log.TC.${T}  #save TD output to this file

##PROD RUN (just to check the average pressure)
reset_timestep 0

variable Pxx equal pxx*0.0001 #GPa
variable Pyy equal pyy*0.0001 #GPa
variable Pzz equal pzz*0.0001 #GPa
variable Pxy equal pxy*0.0001 #GPa
variable Pxz equal pxz*0.0001 #GPa
variable Pyz equal pyz*0.0001 #GPa

##Nevery=2, Nrepeat=6, and Nfreq=100, then values on timesteps 90,92,94,96,98,100
fix ave_press all ave/time 1 ${N_PROD_NVT} ${N_PROD_NVT} v_Pxx v_Pyy v_Pzz v_Pxy v_Pxz v_Pyz  file  ${LOC1}/NVT-ave-pressure-5-50.dat
fix ave_press all ave/time 1 2000 ${N_PROD_NVT} v_Pxx v_Pyy v_Pzz v_Pxy v_Pxz v_Pyz  file  ${LOC1}/NVT-ave-pressure-5-50.dat
fix ave_press all ave/time 1 2000 2000 v_Pxx v_Pyy v_Pzz v_Pxy v_Pxz v_Pyz  file  ${LOC1}/NVT-ave-pressure-5-50.dat
fix ave_press all ave/time 1 2000 2000 v_Pxx v_Pyy v_Pzz v_Pxy v_Pxz v_Pyz  file  ../output/output-1//NVT-ave-pressure-5-50.dat

run ${N_PROD_NVT}
run 2000
Memory usage per processor = 2.40359 Mbytes
Time Temp Press 
           5    504.69085    9.8873484 
         5.5    515.69723    208.19184 
           6     503.0607    51.976563 
         6.5    496.89003    22.727359 
           7    492.45452    -107.5643 
Loop time of 10.424 on 16 procs for 2000 steps with 10000 atoms

Performance: 16.577 ns/day, 1.448 hours/ns, 191.865 timesteps/s
99.4% CPU use with 16 MPI tasks x no OpenMP threads

MPI task timing breakdown:
Section |  min time  |  avg time  |  max time  |%varavg| %total
---------------------------------------------------------------
Pair    | 8.7812     | 9.023      | 9.3552     |   6.1 | 86.56
Neigh   | 0          | 0          | 0          |   0.0 |  0.00
Comm    | 0.19107    | 0.41232    | 0.85324    |  27.2 |  3.96
Output  | 0.020037   | 0.020068   | 0.0205     |   0.1 |  0.19
Modify  | 0.72404    | 0.92815    | 1.2278     |  14.1 |  8.90
Other   |            | 0.04045    |            |       |  0.39

Nlocal:    625 ave 641 max 609 min
Histogram: 1 1 2 2 2 2 2 2 1 1
Nghost:    1585 ave 1602 max 1562 min
Histogram: 1 1 0 2 1 3 2 2 1 3
Neighs:    0 ave 0 max 0 min
Histogram: 16 0 0 0 0 0 0 0 0 0
FullNghs:  21725 ave 22253 max 21151 min
Histogram: 1 1 2 1 3 2 1 3 1 1

Total # of neighbors = 347600
Ave neighs/atom = 34.76
Neighbor list builds = 0
Dangerous builds = 0

write_data ${LOC1}/NVT-EQ-STRUCTURE-5-50 #data file
write_data ../output/output-1//NVT-EQ-STRUCTURE-5-50 

clear

####--------------------------------------------------------------------
####SIMULATION-4: RUN NVE AND APPLY MULLER-PLATHE TO GET THERMAL CONDUCTIVITY
####--------------------------------------------------------------------

log ${LOC2}/log-TC-eq-5-50  #save TD output to this file
log ../output/output-2//log-TC-eq-5-50  
