
units 		metal
dimension	3
boundary	p	p	p
atom_style	atomic

#load structure
read_data output/lammps_data.0K.minimized
  orthogonal box = (-1.07737 -2.15475 -1.07737) to (26.0774 52.1547 26.0774)
  1 by 2 by 1 MPI processor grid
  reading atoms ...
  2000 atoms
  reading velocities ...
  2000 velocities

velocity all create ${T} 4928459 rot yes mom yes dist gaussian
velocity all create 100 4928459 rot yes mom yes dist gaussian

#SCALE FACTORS
variable sf equal (lx/${lxo}+ly/${lyo}+lz/${lzo})/3.0
variable sf equal (lx/27.1547488920413+ly/${lyo}+lz/${lzo})/3.0
variable sf equal (lx/27.1547488920413+ly/54.3094977840826+lz/${lzo})/3.0
variable sf equal (lx/27.1547488920413+ly/54.3094977840826+lz/27.1547488920413)/3.0

#load potential
pair_style sw
pair_coeff * * pot/Si.sw Si
Reading potential file pot/Si.sw with DATE: 2007-06-11
mass * 28.0855


reset_timestep 0
thermo ${thermo_save}
thermo 25
thermo_style custom time temp press v_sf
fix 1 all npt temp ${T} ${T} 0.1 aniso 0.0 0.0 1.0
fix 1 all npt temp 100 ${T} 0.1 aniso 0.0 0.0 1.0
fix 1 all npt temp 100 100 0.1 aniso 0.0 0.0 1.0

#EQ RUN
run ${N_EQ}
run 500
Neighbor list info ...
  1 neighbor list requests
  update every 1 steps, delay 10 steps, check yes
  max neighbors/atom: 2000, page size: 100000
  master list distance cutoff = 5.77118
  ghost atom cutoff = 5.77118
  binsize = 2.88559 -> bins = 10 19 10
Memory usage per processor = 1.9712 Mbytes
Time Temp Press sf 
           0          100    689.17444            1 
       0.025    47.873753   -261.91554    1.0002699 
        0.05    29.756624   -633.61851    1.0003814 
       0.075    42.190632    653.57874    1.0000241 
         0.1    51.014454    472.20238     1.000075 
       0.125      61.0493   -767.24331    1.0004463 
        0.15    72.207267   -302.93866    1.0003038 
       0.175    60.837741    753.42787    0.9999832 
         0.2    51.181321    151.33426    1.0002054 
       0.225     58.80519   -762.52226    1.0005041 
        0.25    62.632967    28.434361    1.0002383 
       0.275    75.480874    767.95966    1.0000018 
         0.3    70.025368   -191.02709    1.0003363 
       0.325    69.312336   -771.63737     1.000537 
        0.35    67.211654    332.66466    1.0001696 
       0.375    75.522358    779.77868    1.0000341 
         0.4    85.776719   -452.80884    1.0004666 
       0.425    80.237111   -809.18487    1.0005759 
        0.45     78.73682    601.61219    1.0001107 
       0.475    83.748096    789.05855    1.0000789 
         0.5    88.113958   -770.67483    1.0006032 
Loop time of 2.76554 on 2 procs for 500 steps with 2000 atoms

Performance: 15.621 ns/day, 1.536 hours/ns, 180.797 timesteps/s
90.6% CPU use with 2 MPI tasks x no OpenMP threads

MPI task timing breakdown:
Section |  min time  |  avg time  |  max time  |%varavg| %total
---------------------------------------------------------------
Pair    | 2.282      | 2.3351     | 2.3883     |   3.5 | 84.44
Neigh   | 0          | 0          | 0          |   0.0 |  0.00
Comm    | 0.28249    | 0.33361    | 0.38473    |   8.9 | 12.06
Output  | 0.0008955  | 0.0046121  | 0.0083287  |   5.5 |  0.17
Modify  | 0.070914   | 0.07606    | 0.081206   |   1.9 |  2.75
Other   |            | 0.01613    |            |       |  0.58

Nlocal:    1000 ave 1050 max 950 min
Histogram: 1 0 0 0 0 0 0 0 0 1
Nghost:    2060 ave 2110 max 2010 min
Histogram: 1 0 0 0 0 0 0 0 0 1
Neighs:    0 ave 0 max 0 min
Histogram: 2 0 0 0 0 0 0 0 0 0
FullNghs:  34000 ave 35700 max 32300 min
Histogram: 1 0 0 0 0 0 0 0 0 1

Total # of neighbors = 68000
Ave neighs/atom = 34
Neighbor list builds = 0
Dangerous builds = 0

#PROD RUN
reset_timestep 0
log output/prod.log.${T}  #save TD output to this file
log output/prod.log.100  
