LAMMPS data file via write_data, version 30 Jul 2016, timestep = 10000

20000 atoms
1 atom types

-1.1038129598819815e+00 2.6103812959881921e+01 xlo xhi
-2.2076259197639587e+01 5.2207625919763962e+02 ylo yhi
-1.1038129598819815e+00 2.6103812959881921e+01 zlo zhi

Masses

1 28.0855

Atoms # atomic

2 1 4.0398259302079897e-01 -2.0469852115816213e+01 8.4885390533349592e-02 0 0 0
3 1 -8.2327297463063343e-01 -1.9088201160155528e+01 1.4300127194013932e+00 0 0 0
5 1 1.6795621197749497e+00 -2.1897866983787225e+01 1.4931959872389537e+00 0 0 0
11 1 4.3710295275641400e+00 -1.9236407152834452e+01 1.4634597828569118e+00 0 0 0
10 1 5.7297191879857481e+00 -2.0645025862731448e+01 6.3083218541426359e-02 0 0 0
13 1 7.0499411235125358e+00 -2.2000227555557871e+01 1.3762319439133166e+00 0 0 0
19 1 9.7298118150214137e+00 -1.9213200313851612e+01 1.4260504615523666e+00 0 0 0
18 1 1.1156924604915927e+01 -2.0507984900082953e+01 1.8671201496006665e-02 0 0 0
21 1 1.2660542235647656e+01 -2.1902353735308765e+01 1.2547416192541303e+00 0 0 0
27 1 1.5285624655304252e+01 -1.9237319872770776e+01 1.1654252671343057e+00 0 0 0
26 1 1.6740748175820336e+01 -2.0511645048225127e+01 -1.4815906771255327e-01 0 0 0
29 1 1.8016800729819202e+01 -2.1901661697249040e+01 1.2098155998499296e+00 0 0 0
34 1 2.2026374122541284e+01 -2.0607202951510668e+01 2.7044280285267963e-01 0 0 0
35 1 2.0686272295655407e+01 -1.9098860273485862e+01 1.4491792761856916e+00 0 0 0
37 1 2.3428270989527118e+01 -2.1991505432542986e+01 1.5620043576926159e+00 0 0 0
45 1 1.8832181113118651e+00 -1.6548137168582922e+01 1.4229034598042236e+00 0 0 0
8 1 3.1968993210970456e+00 -1.7830874532529155e+01 -4.4645868873417205e-02 0 0 0
53 1 7.2018392792358261e+00 -1.6551378093904223e+01 1.4031413693429622e+00 0 0 0
16 1 8.4568621782931626e+00 -1.7958208759813736e+01 -3.9546426165808987e-02 0 0 0
61 1 1.2548803043184369e+01 -1.6610677014845656e+01 1.2664917306615271e+00 0 0 0
24 1 1.3895197220095660e+01 -1.7937827658196003e+01 -1.1871969543525968e-01 0 0 0
69 1 1.8069845483163419e+01 -1.6412904897169486e+01 1.2643223361589511e+00 0 0 0
32 1 1.9430193732788684e+01 -1.7782119511902383e+01 4.7422014542575024e-04 0 0 0
77 1 2.3456282512003238e+01 -1.6471773263735614e+01 1.5058088078617964e+00 0 0 0
40 1 2.4829700039515043e+01 -1.7768015776484152e+01 9.3720101359685073e-02 0 0 0
42 1 2.8849024800429413e-01 -1.5250422988756617e+01 9.9775339118577319e-02 0 0 0
43 1 -1.0147475353633506e+00 -1.3805769342371322e+01 1.4162907858084683e+00 0 0 0
51 1 4.4255622093702351e+00 -1.3684584086684477e+01 1.3013091985277689e+00 0 0 0
50 1 5.9282614124268429e+00 -1.4995566068218737e+01 7.0178941651901517e-03 0 0 0
59 1 9.7892516732721244e+00 -1.3816979925879174e+01 1.2758222284441323e+00 0 0 0
58 1 1.1178670512675225e+01 -1.5197001119304526e+01 -1.4256577564415746e-01 0 0 0
67 1 1.5215985860424201e+01 -1.3752550740567031e+01 1.2503837503767374e+00 0 0 0
66 1 1.6596413141588954e+01 -1.5103963913818614e+01 -2.0958831123341366e-03 0 0 0
74 1 2.2108897110371281e+01 -1.5038884360033618e+01 1.1193853666607066e-01 0 0 0
75 1 2.0700786317953352e+01 -1.3654142110805825e+01 1.2678728444584417e+00 0 0 0
82 1 2.7223194135657569e-01 -9.6141463319255429e+00 1.1974313799282264e-02 0 0 0
85 1 1.7376032689983301e+00 -1.1049153011037683e+01 1.3105768920973719e+00 0 0 0
48 1 2.9747672131749847e+00 -1.2345366940481167e+01 -1.2080630479777897e-01 0 0 0
93 1 7.1355681752080056e+00 -1.1079976529707775e+01 1.4263384343316963e+00 0 0 0
90 1 5.6963214251427949e+00 -9.5742466026090600e+00 -5.2665376062902614e-02 0 0 0
56 1 8.4444809986147273e+00 -1.2415479885786525e+01 -5.6647786126728860e-03 0 0 0
64 1 1.3871502556120511e+01 -1.2340279822408869e+01 -9.1448243061305889e-02 0 0 0
98 1 1.1253192791377620e+01 -9.5550288165103225e+00 -6.0746051803919031e-03 0 0 0
101 1 1.2653407371700885e+01 -1.1027471233346892e+01 1.2869556537633278e+00 0 0 0
106 1 1.6583053672646280e+01 -9.8282924907202549e+00 -1.0078879586017900e-01 0 0 0
72 1 1.9306202167221407e+01 -1.2405467789072585e+01 -1.1621589801007544e-01 0 0 0
109 1 1.7931547198075855e+01 -1.1151385568374055e+01 1.3716218671787366e+00 0 0 0
114 1 2.2173804552900499e+01 -9.7019398504482570e+00 2.2822369799670256e-02 0 0 0
80 1 2.4895797425750843e+01 -1.2384043850638950e+01 -1.6618720791516727e-02 0 0 0
117 1 2.3592868515692189e+01 -1.1033068861921731e+01 1.4959154125066074e+00 0 0 0
83 1 -8.9951047803131878e-01 -8.1811132829807196e+00 1.4245138055647200e+00 0 0 0
88 1 2.8660490812651291e+00 -6.9571261773100934e+00 -1.1241166062629312e-02 0 0 0
91 1 4.3891087627608645e+00 -8.3259363497599779e+00 1.4152499910087619e+00 0 0 0
96 1 8.4889479145150322e+00 -7.0466470425580114e+00 3.4262027112189904e-02 0 0 0
99 1 9.9278638963129247e+00 -8.2686792158743394e+00 1.4349858108452642e+00 0 0 0
104 1 1.3951855898312026e+01 -6.9162567980500613e+00 3.7296492251023231e-02 0 0 0
107 1 1.5396905816865059e+01 -8.3481072632357947e+00 1.2908382370063263e+00 0 0 0
112 1 1.9277885889090623e+01 -7.0272978041837746e+00 2.9724858487648061e-02 0 0 0
115 1 2.0794228358721938e+01 -8.3133331223462736e+00 1.4455611186454176e+00 0 0 0
120 1 2.4885824560334402e+01 -6.9050419518815485e+00 1.9244735865425727e-02 0 0 0
122 1 3.0957546228163607e-01 -4.1961076892934521e+00 2.2693199026962854e-01 0 0 0
125 1 1.6551788511510988e+00 -5.5422889992269795e+00 1.4657625929472375e+00 0 0 0
133 1 7.2482165638795300e+00 -5.6886043751631226e+00 1.2722070566932169e+00 0 0 0
130 1 5.8158515883476092e+00 -4.3306786935209880e+00 5.9455640222910396e-02 0 0 0
138 1 1.1198459395802317e+01 -4.4219728994781580e+00 -5.1453536020456804e-02 0 0 0
141 1 1.2604594393941166e+01 -5.6253953662258231e+00 1.4209920055075371e+00 0 0 0
146 1 1.6543757130961978e+01 -4.3212487461255078e+00 -5.1669874957946567e-02 0 0 0
149 1 1.7972509483126995e+01 -5.6854991645348152e+00 1.4350774159681787e+00 0 0 0
154 1 2.2142058904947582e+01 -4.3921756005121946e+00 -4.9711932754023178e-03 0 0 0
157 1 2.3580887247368398e+01 -5.5691729134455272e+00 1.3205424891964999e+00 0 0 0
123 1 -9.4524222110226674e-01 -2.6695506598255729e+00 1.4420771148346003e+00 0 0 0
131 1 4.4227518421161740e+00 -2.9538331137315694e+00 1.3216878737950204e+00 0 0 0
128 1 3.0800058624179520e+00 -1.5784511449376997e+00 4.2838246015877782e-02 0 0 0
139 1 9.8228065376542357e+00 -3.0216554520055756e+00 1.4161849805362889e+00 0 0 0
136 1 8.4307316875630818e+00 -1.6361160301125079e+00 -2.3195646832279530e-02 0 0 0
144 1 1.3731572185959305e+01 -1.6168953280983589e+00 -2.1239909426927772e-01 0 0 0
147 1 1.5113080906648779e+01 -2.7925234245755406e+00 1.3381545782928026e+00 0 0 0
152 1 1.9217392158922802e+01 -1.7015227905179144e+00 4.4589625763860580e-02 0 0 0
155 1 2.0713810972439031e+01 -3.0987410313311297e+00 1.3511479163957478e+00 0 0 0
160 1 2.4735138913499526e+01 -1.4622251865538038e+00 6.8265656438634734e-02 0 0 0
165 1 1.7097920136077582e+00 -1.5128441524537556e-01 1.5975255047922150e+00 0 0 0
162 1 3.3204614148798106e-01 1.0691758462440906e+00 6.6875361253678489e-02 0 0 0
163 1 -1.0361152891353012e+00 2.4809228088662989e+00 1.4727866145779596e+00 0 0 0
171 1 4.3469192914219992e+00 2.5450501545791888e+00 1.5156082349598887e+00 0 0 0
170 1 5.6811314138198599e+00 1.1676409309334026e+00 1.4592553699906965e-01 0 0 0
173 1 7.2697448043361073e+00 -1.7524428270131293e-01 1.4093767904077006e+00 0 0 0
179 1 9.8136005196815308e+00 2.5942881723629614e+00 1.3464210791096771e+00 0 0 0
178 1 1.1183265105514968e+01 1.1194962595637941e+00 1.4935589174938393e-01 0 0 0
181 1 1.2439227293351557e+01 -3.6241286657767680e-01 1.3507015482446314e+00 0 0 0
186 1 1.6535884814018210e+01 1.1007701654314888e+00 1.1203069883297172e-01 0 0 0
187 1 1.5280074536660051e+01 2.4487394339864506e+00 1.3996754513394010e+00 0 0 0
189 1 1.7942646710472602e+01 -2.6526450679575497e-01 1.4072698316205994e+00 0 0 0
194 1 2.1961030858866522e+01 1.1121345926358914e+00 -1.5521147823551507e-02 0 0 0
195 1 2.0811363807852516e+01 2.4753955875296758e+00 1.4390010408316263e+00 0 0 0
197 1 2.3310302489472043e+01 -1.4206865881510697e-01 1.3215704209852244e+00 0 0 0
205 1 1.7042155419924958e+00 5.0819574491417860e+00 1.4907947536890880e+00 0 0 0
168 1 3.0646247176659416e+00 3.8391010637939105e+00 7.6511136412672209e-02 0 0 0
213 1 7.1274529192381655e+00 5.2738407381015868e+00 1.3841940932245533e+00 0 0 0
176 1 8.4314431097473452e+00 3.9559814620700871e+00 -8.2316421369583420e-02 0 0 0
184 1 1.3963790911149161e+01 3.8867456926731765e+00 3.7486947772735084e-02 0 0 0
221 1 1.2580289208218739e+01 5.2293468227542306e+00 1.4047520342226045e+00 0 0 0
192 1 1.9489901861922640e+01 3.7655988775623599e+00 5.3847238890096967e-02 0 0 0
229 1 1.8089410080385626e+01 5.1724347583407928e+00 1.3620669310350353e+00 0 0 0
200 1 2.4696096170197372e+01 3.8200805919214185e+00 -9.3934553404173282e-02 0 0 0
237 1 2.3572834298632053e+01 5.2283613922047385e+00 1.2856642431828165e+00 0 0 0
202 1 4.0196622148666056e-01 6.5688118244134142e+00 9.8770505931767741e-02 0 0 0
203 1 -9.8401062072657353e-01 7.9224153466511487e+00 1.3852601053620985e+00 0 0 0
211 1 4.3367399261665147e+00 7.9865845487235756e+00 1.5321105467737548e+00 0 0 0
210 1 5.7116965352148688e+00 6.6627007966057992e+00 1.9782133161690260e-01 0 0 0
219 1 9.7760233546525690e+00 7.9095708984183686e+00 1.4302249987821125e+00 0 0 0
218 1 1.1075344091643119e+01 6.5576190173905369e+00 9.8934391516151653e-03 0 0 0
227 1 1.5215997259798277e+01 7.8592030371775623e+00 1.2724045820815995e+00 0 0 0
226 1 1.6691329937295116e+01 6.6393431373803438e+00 -8.2844825666009009e-02 0 0 0
234 1 2.1890484624153846e+01 6.4947966845205061e+00 1.4764299793459196e-01 0 0 0
235 1 2.0596499785151138e+01 7.9004487424031051e+00 1.5489607843794897e+00 0 0 0
245 1 1.6146173321950175e+00 1.0711203893562320e+01 1.4782409502495635e+00 0 0 0
208 1 3.0014592503811235e+00 9.4769701124375008e+00 4.8992985912471587e-02 0 0 0
253 1 7.2102336188447769e+00 1.0726579870503791e+01 1.3938932329535234e+00 0 0 0
16277 1 2.3660574979218033e+01 1.0670492436667603e+01 2.3122532364552214e+01 0 0 0
216 1 8.5246571362274359e+00 9.2883854398555652e+00 2.3438939246780546e-02 0 0 0
261 1 1.2475856462613521e+01 1.0715873972580386e+01 1.2876122805354313e+00 0 0 0
16236 1 2.2240891152930296e+01 9.2663176975857606e+00 2.4483478177934590e+01 0 0 0
224 1 1.3843877683650977e+01 9.2259529248783316e+00 -2.8291173639226730e-02 0 0 0
269 1 1.8083082061863198e+01 1.0575953288073388e+01 1.4733169923645573e+00 0 0 0
232 1 1.9373934054749260e+01 9.4228273946742540e+00 4.1394774135579899e-03 0 0 0
277 1 2.3582516485277630e+01 1.0489856542619014e+01 1.3479646987985565e+00 0 0 0
240 1 2.4842445873323452e+01 9.2268931761628661e+00 -1.0053327745930500e-01 0 0 0
4007 1 1.7240286344377689e+00 -1.9220291062180955e+01 4.2030926210456423e+00 0 0 0
4001 1 -1.0564537077895606e+00 -2.1892358989319742e+01 4.0597419025880974e+00 0 0 0
6 1 3.0729932768947985e+00 -2.0599611983288334e+01 2.8947167337294353e+00 0 0 0
4009 1 4.4698866114752525e+00 -2.2036236768935382e+01 4.1166042953799105e+00 0 0 0
4015 1 7.2021185148168634e+00 -1.9263719126232889e+01 4.1427939453576208e+00 0 0 0
14 1 8.6033711303984290e+00 -2.0606448925166706e+01 2.8368461814616697e+00 0 0 0
4023 1 1.2549339806464474e+01 -1.9200100869575884e+01 4.0307867681155214e+00 0 0 0
22 1 1.4089248286910339e+01 -2.0531375249849454e+01 2.6242578352697183e+00 0 0 0
4031 1 1.8044453820185431e+01 -1.9235201303687173e+01 3.9358880063721258e+00 0 0 0
30 1 1.9381792163919663e+01 -2.0643103246366536e+01 2.6892226988625847e+00 0 0 0
4033 1 2.0699120184021524e+01 -2.1979851675575421e+01 4.1944334827474865e+00 0 0 0
38 1 2.4864352963986274e+01 -2.0521643760213752e+01 2.6482659262902275e+00 0 0 0
4039 1 2.3417883638186737e+01 -1.9232810069420513e+01 3.9616253405904365e+00 0 0 0
4 1 4.7923632832613300e-01 -1.7750548680221275e+01 2.7991411152388435e+00 0 0 0
4041 1 -1.0786637147790341e+00 -1.6425718781872447e+01 4.1675370179132978e+00 0 0 0
4049 1 4.5408929940097060e+00 -1.6370034373589871e+01 3.9871250016029194e+00 0 0 0
12 1 5.8638301374052135e+00 -1.7970477080781276e+01 2.7058500118977680e+00 0 0 0
4057 1 9.7431255210066752e+00 -1.6605765903226967e+01 4.1575909286319543e+00 0 0 0
20 1 1.1108641829931889e+01 -1.7866819488434647e+01 2.6093972101049379e+00 0 0 0
4065 1 1.5438375145966527e+01 -1.6478642292615653e+01 3.9533887704022206e+00 0 0 0
28 1 1.6714808648143233e+01 -1.7930233441948904e+01 2.5643677529670681e+00 0 0 0
4073 1 2.0742799058745980e+01 -1.6387642989659838e+01 4.1227481003731397e+00 0 0 0
36 1 2.2073688127535288e+01 -1.7800850542581241e+01 2.6846634047586329e+00 0 0 0
4047 1 1.7109827443640837e+00 -1.3841834151696061e+01 4.0585480811517174e+00 0 0 0
46 1 3.1722165215378455e+00 -1.5033410646861757e+01 2.6239529545465916e+00 0 0 0
4055 1 7.2034189208664703e+00 -1.3815069417690346e+01 4.0960158775647697e+00 0 0 0
54 1 8.5432878430657748e+00 -1.5140643403425369e+01 2.6753505459192155e+00 0 0 0
4063 1 1.2488989704314186e+01 -1.3834210187117788e+01 4.0532129700251502e+00 0 0 0
62 1 1.3898248323885721e+01 -1.5089602068540948e+01 2.5987526591305219e+00 0 0 0
4071 1 1.8040184545269607e+01 -1.3795796314454305e+01 4.0386076803526931e+00 0 0 0
70 1 1.9469780299488903e+01 -1.4972400545162023e+01 2.6746138913276196e+00 0 0 0
78 1 2.4855991575622774e+01 -1.5051838533311413e+01 2.6957612497832080e+00 0 0 0
4079 1 2.3557042296013428e+01 -1.3518719380266599e+01 4.2342710723099062e+00 0 0 0
44 1 3.9444689798436383e-01 -1.2428682214325821e+01 2.6986290491370859e+00 0 0 0
4081 1 -8.9445920772037357e-01 -1.0869062069768935e+01 3.9998554156905786e+00 0 0 0
4089 1 4.3292700994843436e+00 -1.1017001743124796e+01 4.0177628898324365e+00 0 0 0
86 1 3.0681500332714560e+00 -9.6867179088875766e+00 2.6986483985740084e+00 0 0 0
52 1 5.7726206581101298e+00 -1.2467140263349338e+01 2.7375759815357008e+00 0 0 0
94 1 8.5634015574460083e+00 -9.6710879755093124e+00 2.7223994951351167e+00 0 0 0
4097 1 9.9622194741870125e+00 -1.1122015800170892e+01 4.0396317957299717e+00 0 0 0
60 1 1.1217750615447125e+01 -1.2475932262825895e+01 2.6102646749470577e+00 0 0 0
102 1 1.4134840578636950e+01 -9.7141411879759207e+00 2.5312806773136689e+00 0 0 0
68 1 1.6652948239134744e+01 -1.2453610335151231e+01 2.7169566760489601e+00 0 0 0
4105 1 1.5298551469160167e+01 -1.1088626745917786e+01 4.0748700593322171e+00 0 0 0
110 1 1.9352566059285504e+01 -9.7953877279799872e+00 2.6466000395283826e+00 0 0 0
76 1 2.2171301984995722e+01 -1.2351540976357672e+01 2.7019249984370290e+00 0 0 0
4113 1 2.0678267337659292e+01 -1.1065203378634321e+01 3.9503920703677182e+00 0 0 0
118 1 2.4900765812470805e+01 -9.5269644502690713e+00 2.8273331091217240e+00 0 0 0
84 1 3.5270759971349630e-01 -6.8256425323089873e+00 2.9028597696801164e+00 0 0 0
4087 1 1.7324386626453179e+00 -8.2365029753002705e+00 4.0740258555223212e+00 0 0 0
92 1 5.9176264529704925e+00 -7.0805318920166460e+00 2.7463429873584162e+00 0 0 0
4095 1 7.2540072739068462e+00 -8.4523167523951166e+00 4.0623362361217463e+00 0 0 0
100 1 1.1305000410188745e+01 -7.0535420975916727e+00 2.8046936402214948e+00 0 0 0
4103 1 1.2696293429255626e+01 -8.3834074637161908e+00 4.0674403962584176e+00 0 0 0
108 1 1.6665278489385315e+01 -7.0020242486863413e+00 2.6894248666356693e+00 0 0 0
4111 1 1.7978319648208753e+01 -8.3308375795116678e+00 4.0241514797434030e+00 0 0 0
116 1 2.2283545247636475e+01 -6.9680206263174167e+00 2.6349240184463403e+00 0 0 0
4119 1 2.3462491733701672e+01 -8.3939300848996030e+00 4.0627720336146096e+00 0 0 0
4121 1 -1.0021124889226598e+00 -5.4964862718613698e+00 4.2165940535898212e+00 0 0 0
4129 1 4.4979882688536499e+00 -5.7147321393154877e+00 3.9832187669130970e+00 0 0 0
126 1 3.0998178271795691e+00 -4.2859766040608367e+00 2.6745861720371975e+00 0 0 0
4137 1 9.8565488450636778e+00 -5.6188451803573871e+00 4.0730267689680106e+00 0 0 0
134 1 8.5040809816946439e+00 -4.3537243353639523e+00 2.7657951844582729e+00 0 0 0
142 1 1.3964127349640625e+01 -4.3556180372294753e+00 2.7271637746267174e+00 0 0 0
4145 1 1.5475602409060484e+01 -5.7221579869357804e+00 4.1207452068519803e+00 0 0 0
150 1 1.9355047504655165e+01 -4.3255817958601552e+00 2.7706786963762609e+00 0 0 0
4153 1 2.0856814896828407e+01 -5.6595481818929239e+00 3.9884992272656259e+00 0 0 0
158 1 2.4912832133358901e+01 -4.2055424481282033e+00 2.7077300549278971e+00 0 0 0
4127 1 1.8782641403336260e+00 -2.8414700116958378e+00 4.1042100878322172e+00 0 0 0
124 1 3.8606661243039503e-01 -1.5315689469972125e+00 2.9797564058162163e+00 0 0 0
4135 1 7.0924465803939336e+00 -2.8938597363684297e+00 4.0608641639747010e+00 0 0 0
132 1 5.8994356954146872e+00 -1.5438840255899591e+00 2.6906240616407904e+00 0 0 0
140 1 1.1147289177358049e+01 -1.5549793157005054e+00 2.8143957477597805e+00 0 0 0
4143 1 1.2589693102979577e+01 -2.9562320161983666e+00 4.1130555674456382e+00 0 0 0
148 1 1.6582632484733931e+01 -1.6244838301869524e+00 2.8170247789568603e+00 0 0 0
4151 1 1.8119019555841266e+01 -2.9437741490424330e+00 4.1010017615969350e+00 0 0 0
156 1 2.2041787850571907e+01 -1.6996042838039547e+00 2.6877890387143277e+00 0 0 0
4159 1 2.3457663427542169e+01 -2.9464631546295426e+00 4.1352230125989538e+00 0 0 0
4167 1 1.6453185196410318e+00 2.4858889924499836e+00 4.2105165281647041e+00 0 0 0
4169 1 4.5519710004316734e+00 -1.3318246368699324e-01 4.1626713571026137e+00 0 0 0
166 1 3.1526245825784853e+00 1.2409182664423541e+00 2.8925268829963162e+00 0 0 0
4175 1 7.2931736593142684e+00 2.5723264919836213e+00 4.1720207115746168e+00 0 0 0
4177 1 9.8707988693907129e+00 -2.4029758873525564e-01 4.3249647487064413e+00 0 0 0
174 1 8.6186903515741626e+00 1.2146746120432976e+00 2.7608258169498465e+00 0 0 0
182 1 1.3796117231813398e+01 1.0455947226010518e+00 2.7436447845756549e+00 0 0 0
4183 1 1.2478809650794878e+01 2.3960056692867782e+00 4.2826115165661705e+00 0 0 0
4185 1 1.5175706040207476e+01 -1.8404416571897372e-01 4.1159062280199707e+00 0 0 0
190 1 1.9345476696792424e+01 1.1101238178121362e+00 2.7382689408831693e+00 0 0 0
4191 1 1.8016460191785278e+01 2.4186773694759172e+00 4.1635186719731241e+00 0 0 0
4193 1 2.0583419322679859e+01 -3.3503806909570955e-01 4.0462456967428100e+00 0 0 0
4161 1 -1.0305315844354439e+00 -2.5498140693224775e-01 4.2244462880902303e+00 0 0 0
198 1 2.4777996368828529e+01 9.9164190668689112e-01 2.7905179706779148e+00 0 0 0
4199 1 2.3482460323581300e+01 2.4345701982032129e+00 4.0801504790909568e+00 0 0 0
164 1 3.2530254118142365e-01 3.9294215966897958e+00 2.8377066069818806e+00 0 0 0
4201 1 2.6030966507418427e+01 5.2782320563984948e+00 4.0623018540184432e+00 -1 0 0
4209 1 4.4840148787984679e+00 5.1038001885646995e+00 4.2695015379148726e+00 0 0 0
172 1 5.7767747748123801e+00 3.8023269062734637e+00 2.9079397653335515e+00 0 0 0
4217 1 9.9009600654316241e+00 5.2497693002194588e+00 4.0623119443900890e+00 0 0 0
180 1 1.1167733677123124e+01 3.8224102944695955e+00 2.7335411797140847e+00 0 0 0
188 1 1.6664541887227099e+01 3.8130117614271799e+00 2.8722887833007795e+00 0 0 0
4225 1 1.5297760467413617e+01 5.0506302499671216e+00 4.3155863209426091e+00 0 0 0
196 1 2.2182313663529758e+01 3.8695289319522237e+00 2.7187872619958955e+00 0 0 0
4233 1 2.0769134097726777e+01 5.1920639533261115e+00 4.0862498482061147e+00 0 0 0
4207 1 1.7465766774854468e+00 7.7172236484054091e+00 4.2217220733732610e+00 0 0 0
206 1 3.1638304218342235e+00 6.4873599145746850e+00 2.7751391813685937e+00 0 0 0
4215 1 7.1074520251081159e+00 7.8884561436183169e+00 4.2575908776110341e+00 0 0 0
214 1 8.4281128425212124e+00 6.4776346417872501e+00 2.7324385240046531e+00 0 0 0
222 1 1.4033130056715631e+01 6.4437810622687355e+00 2.8328640827170788e+00 0 0 0
4223 1 1.2677547872133838e+01 7.9893096047231573e+00 4.0309352859389920e+00 0 0 0
4231 1 1.8015647694766930e+01 7.7515334594786252e+00 4.1664059487199383e+00 0 0 0
230 1 1.9321111510596822e+01 6.5244466641901200e+00 2.8496211095452155e+00 0 0 0
238 1 2.4754993973678548e+01 6.5321356987606043e+00 2.6499204024582959e+00 0 0 0
4239 1 2.3473919716203081e+01 7.8011902350377786e+00 3.9580411992033331e+00 0 0 0
204 1 4.2049068561364394e-01 9.1663252498765910e+00 2.7862109766807510e+00 0 0 0
4241 1 -9.6636407780569356e-01 1.0646840643021674e+01 4.1715382484101262e+00 0 0 0
4249 1 4.4929580469776145e+00 1.0670897708456401e+01 4.1952158275075035e+00 0 0 0
212 1 5.8623459076479714e+00 9.3242453567385386e+00 2.7412355837395115e+00 0 0 0
4257 1 9.9203388489623450e+00 1.0699660417109198e+01 4.1428880607628260e+00 0 0 0
220 1 1.1229454677944272e+01 9.2237491867544907e+00 2.6978325716002005e+00 0 0 0
4265 1 1.5332535456707289e+01 1.0631456896368002e+01 4.0453354382024411e+00 0 0 0
228 1 1.6653231016129276e+01 9.1738003272692215e+00 2.7073597675823651e+00 0 0 0
4273 1 2.0841632486549521e+01 1.0595142862166208e+01 4.1040536524695037e+00 0 0 0
236 1 2.2141276563149496e+01 9.2067166129056179e+00 2.7087805316698477e+00 0 0 0
4002 1 3.6415742998462886e-01 -2.0689463544640454e+01 5.5448609003632656e+00 0 0 0
4005 1 1.7040232384159952e+00 -2.2022234178957802e+01 6.9002874070302527e+00 0 0 0
4011 1 4.4716177909222745e+00 -1.9172633173921504e+01 6.7811182663353211e+00 0 0 0
4010 1 5.7659663118332709e+00 -2.0601762199670425e+01 5.4310291827023294e+00 0 0 0
4013 1 7.1119784150001530e+00 -2.1955723742340556e+01 6.7750819474178154e+00 0 0 0
4019 1 9.8802026897673620e+00 -1.9117635668926336e+01 6.7019720272136878e+00 0 0 0
4018 1 1.1320314542388196e+01 -2.0508778826615554e+01 5.4124350737454376e+00 0 0 0
4021 1 1.2692880999199554e+01 -2.1888018110389339e+01 6.8402909791454647e+00 0 0 0
4027 1 1.5357902386830700e+01 -1.9147061827906612e+01 6.7631778256512050e+00 0 0 0
4026 1 1.6726169288652322e+01 -2.0604349644760926e+01 5.4444297439056113e+00 0 0 0
4029 1 1.8106439025777700e+01 -2.1936130387840059e+01 6.9085426474489191e+00 0 0 0
4034 1 2.2078142835939161e+01 -2.0453413607571829e+01 5.3381228008112647e+00 0 0 0
4035 1 2.0787535286219466e+01 -1.9051540456947720e+01 6.7502139629248674e+00 0 0 0
4003 1 2.6094999139857986e+01 -1.9369177722583860e+01 6.7915311624736301e+00 -1 0 0
4045 1 1.6222688573994817e+00 -1.6498726347079362e+01 6.6954636778871164e+00 0 0 0
4008 1 3.1994989750565677e+00 -1.7792490566447032e+01 5.4042749704210005e+00 0 0 0
4053 1 7.1715914150787388e+00 -1.6430507254026978e+01 6.9366771625627806e+00 0 0 0
4016 1 8.4201250464766666e+00 -1.7767874666431496e+01 5.5578088689765046e+00 0 0 0
4061 1 1.2723591530176257e+01 -1.6626957965360234e+01 6.7281856794285488e+00 0 0 0
4024 1 1.4038706984460028e+01 -1.7862255535207321e+01 5.2885775190868065e+00 0 0 0
4069 1 1.7919303795542596e+01 -1.6508282456142574e+01 6.7874214157094759e+00 0 0 0
4032 1 1.9376789280784280e+01 -1.7849032110572857e+01 5.3346660954738354e+00 0 0 0
4077 1 2.3520391677654839e+01 -1.6411254847775393e+01 6.7957847820575337e+00 0 0 0
4040 1 2.4830995439315760e+01 -1.7790180365664575e+01 5.4274954333511927e+00 0 0 0
4042 1 3.1191612317427164e-01 -1.5119036293999951e+01 5.4017180116373353e+00 0 0 0
4051 1 4.3895413902916296e+00 -1.3846936353548021e+01 6.8587002662880892e+00 0 0 0
4050 1 5.8301283841658780e+00 -1.5100026979979669e+01 5.4848153697601605e+00 0 0 0
4059 1 9.8933609906548057e+00 -1.3734699362436711e+01 6.6676570479984250e+00 0 0 0
4058 1 1.1170662348298427e+01 -1.5246721508105017e+01 5.4579852794956132e+00 0 0 0
4067 1 1.5276451063250745e+01 -1.3835362221742923e+01 6.8759259913708419e+00 0 0 0
4066 1 1.6756319671590870e+01 -1.5070487936678205e+01 5.4412672820118289e+00 0 0 0
4074 1 2.2208070493084236e+01 -1.5031789523061319e+01 5.5078725592580540e+00 0 0 0
4075 1 2.0824358905593808e+01 -1.3642048576713737e+01 6.7622852633666932e+00 0 0 0
4043 1 -1.0547076765342425e+00 -1.3837349699579754e+01 6.7304574088421392e+00 0 0 0
4085 1 1.6265355203652685e+00 -1.1088272246829190e+01 6.7775170885515896e+00 0 0 0
4082 1 5.2353009221363611e-01 -9.6853853718440917e+00 5.3869763083610724e+00 0 0 0
4048 1 2.9742385676608754e+00 -1.2445686893934022e+01 5.3825901938807190e+00 0 0 0
4090 1 5.8209607795432694e+00 -9.6467821249850143e+00 5.4069534428257118e+00 0 0 0
4093 1 7.1765004811355908e+00 -1.1059373380778906e+01 6.9870038341845415e+00 0 0 0
4056 1 8.5336068584976950e+00 -1.2288906062591980e+01 5.5054844979046518e+00 0 0 0
4064 1 1.3995929522270206e+01 -1.2471429098764439e+01 5.3901083386461925e+00 0 0 0
4101 1 1.2578950371432915e+01 -1.1166743205664186e+01 6.8106130168019057e+00 0 0 0
4106 1 1.6689939596329658e+01 -9.8120847830705884e+00 5.3454705556180446e+00 0 0 0
4072 1 1.9317199383394485e+01 -1.2385717139086221e+01 5.4270093678252556e+00 0 0 0
4109 1 1.8049503050709561e+01 -1.1050845675436975e+01 6.7058270652417473e+00 0 0 0
4114 1 2.2139412158006611e+01 -9.7231405731411478e+00 5.4306200049461788e+00 0 0 0
4080 1 2.4941390546942991e+01 -1.2064840297855866e+01 5.4550344148370273e+00 0 0 0
4117 1 2.3477298892533209e+01 -1.1017455766093304e+01 6.7321954072148795e+00 0 0 0
4083 1 -9.3460238122439199e-01 -8.2988420194094736e+00 6.7172571342823888e+00 0 0 0
4091 1 4.5968309829588705e+00 -8.3879626788747785e+00 6.8693016880027225e+00 0 0 0
4088 1 3.2559419879622093e+00 -7.0326253419138345e+00 5.4254650323031086e+00 0 0 0
4096 1 8.4903862012621936e+00 -7.0318550696217859e+00 5.4166911542267879e+00 0 0 0
4099 1 9.8942327107534354e+00 -8.3587625213114389e+00 6.8327281060715528e+00 0 0 0
4098 1 1.1276969694612506e+01 -9.7291082645175582e+00 5.3919703077099443e+00 0 0 0
4104 1 1.4076294588397269e+01 -7.0794072363916900e+00 5.4568338581077667e+00 0 0 0
4107 1 1.5456629295751355e+01 -8.3492868358303074e+00 6.6851822689557370e+00 0 0 0
4112 1 1.9467344302751901e+01 -7.0190847054239489e+00 5.3288769344174600e+00 0 0 0
4115 1 2.0736660247900268e+01 -8.2827240640149764e+00 6.6957427245772818e+00 0 0 0
4120 1 2.4785813776158317e+01 -7.0928286559484235e+00 5.3401021304531389e+00 0 0 0
4125 1 1.7772345333774013e+00 -5.7793059812306158e+00 6.6814236408002934e+00 0 0 0
4122 1 4.7348383908779290e-01 -4.2224714742655554e+00 5.5132023098674017e+00 0 0 0
4133 1 7.0904218389431231e+00 -5.7145157146478303e+00 6.8305237785911030e+00 0 0 0
4130 1 5.8654906854936080e+00 -4.2844463720307244e+00 5.4904112091509427e+00 0 0 0
4141 1 1.2575547250839314e+01 -5.8196929271087185e+00 6.7927322923331221e+00 0 0 0
4138 1 1.1280447608259985e+01 -4.3551186735545402e+00 5.4604381664847272e+00 0 0 0
4146 1 1.6715644974981771e+01 -4.2113950002685687e+00 5.4982559500787982e+00 0 0 0
4149 1 1.8108037300253201e+01 -5.7339819892127029e+00 6.7906215428237324e+00 0 0 0
4154 1 2.2249893568219512e+01 -4.3591887363233157e+00 5.4106162331495895e+00 0 0 0
4157 1 2.3511821215034001e+01 -5.6960587643872236e+00 6.8195381510361761e+00 0 0 0
4123 1 -9.4524360921977624e-01 -2.8524637752338040e+00 6.8675248331658922e+00 0 0 0
4131 1 4.4702768179316790e+00 -2.9491549603725633e+00 6.8898730821524161e+00 0 0 0
4128 1 3.1632055204373466e+00 -1.5356340308836354e+00 5.4918678065409718e+00 0 0 0
4139 1 9.7413926368915913e+00 -2.9394278585260949e+00 6.8228729500487937e+00 0 0 0
4136 1 8.4376254940992830e+00 -1.6429103556787539e+00 5.4105774305776677e+00 0 0 0
4144 1 1.3996595364956514e+01 -1.6261991020456517e+00 5.5964570259712234e+00 0 0 0
4147 1 1.5266772497486562e+01 -3.0379294182574759e+00 6.9338954243544615e+00 0 0 0
4152 1 1.9345621765986184e+01 -1.5534213310002634e+00 5.5822522352277728e+00 0 0 0
4155 1 2.0787602638682447e+01 -3.0173800572774372e+00 6.6518594113031995e+00 0 0 0
4160 1 2.4783772864705995e+01 -1.6212386406813992e+00 5.5039586191785306e+00 0 0 0
4165 1 1.7391821239324492e+00 -2.0272206644872007e-01 6.8766976156385624e+00 0 0 0
4162 1 3.3067403364838649e-01 1.0430819175227901e+00 5.5337375316110036e+00 0 0 0
4163 1 -9.4645634472899198e-01 2.4796141130832590e+00 6.9610513875826276e+00 0 0 0
4171 1 4.4082369397664163e+00 2.5139310031275732e+00 6.8122714193211271e+00 0 0 0
4166 1 3.2844174171437936e+00 1.0450898145341920e+00 8.3479042735716504e+00 0 0 0
4173 1 7.1272323899177357e+00 -2.7853546844715465e-01 6.7311394974131060e+00 0 0 0
4170 1 5.8863592560903770e+00 1.2577230666840622e+00 5.5294163701763814e+00 0 0 0
4179 1 9.8397508013575532e+00 2.5714916224654276e+00 6.8022900829109991e+00 0 0 0
4181 1 1.2543488643544176e+01 -2.3030860500032513e-01 6.9278113123636382e+00 0 0 0
4178 1 1.1194167046331026e+01 1.1448634090827998e+00 5.6548373496939135e+00 0 0 0
4186 1 1.6684107960423088e+01 9.9490585947850674e-01 5.5288843759720478e+00 0 0 0
4187 1 1.5300412965514042e+01 2.5108430587562789e+00 6.9530556767202274e+00 0 0 0
4189 1 1.8025643833406367e+01 -3.6705218314357507e-01 7.0794316415446135e+00 0 0 0
4194 1 2.2122939319577480e+01 1.1736031562951470e+00 5.4417373875650723e+00 0 0 0
4195 1 2.0715922162995245e+01 2.4295736693147152e+00 6.7211935705966122e+00 0 0 0
4197 1 2.3392407123949599e+01 -2.7466613722425931e-01 6.8472054220432916e+00 0 0 0
4205 1 1.7252313395333494e+00 5.2803293616944087e+00 6.8672275596882963e+00 0 0 0
4168 1 3.0089068029289239e+00 3.7887769047739850e+00 5.5566465643791396e+00 0 0 0
4213 1 7.3341901250985542e+00 5.2660730442315700e+00 6.8796727782915292e+00 0 0 0
4176 1 8.6012802735512750e+00 3.9448495657564902e+00 5.4875282999473445e+00 0 0 0
4184 1 1.3939649669366110e+01 3.7919302826068710e+00 5.4968028913294615e+00 0 0 0
4221 1 1.2664698836247867e+01 5.2652790930844846e+00 6.7422095643667737e+00 0 0 0
4192 1 1.9345693681256908e+01 3.8744016816140956e+00 5.4299972232890878e+00 0 0 0
4229 1 1.8171544500895664e+01 5.2464836127406098e+00 6.9470855473745354e+00 0 0 0
4200 1 2.4892261251845216e+01 3.7979705585857273e+00 5.4804649241468901e+00 0 0 0
4237 1 2.3644865308636227e+01 5.3108889106747990e+00 6.7808685165990310e+00 0 0 0
4202 1 2.1115926685649070e-01 6.4745598000874427e+00 5.5107321728864589e+00 0 0 0
4203 1 -9.6738250874100662e-01 7.9314340050360590e+00 6.9434648558022092e+00 0 0 0
4211 1 4.3981534993684042e+00 7.9744302769340107e+00 6.8422277975356272e+00 0 0 0
4210 1 5.7915878791976043e+00 6.5253006432717831e+00 5.6409948665946326e+00 0 0 0
4219 1 1.0042604588475431e+01 7.9438774524623108e+00 6.7955739043581778e+00 0 0 0
4218 1 1.1315872901465642e+01 6.6339441452908821e+00 5.4385355655170526e+00 0 0 0