
units 		metal
dimension	3
boundary	p	p	p
atom_style	atomic

###READ ATOMS
read_data ${LOC2}/TC-EQ-STRUCTURE-5-25
read_data ../output/output-2//TC-EQ-STRUCTURE-5-25
  orthogonal box = (-1.10372 -5.51858 -1.10372) to (26.1037 130.519 26.1037)
  1 by 8 by 1 MPI processor grid
  reading atoms ...
  5000 atoms
  reading velocities ...
  5000 velocities

###load potential
pair_style sw
pair_coeff * * pot/Si.sw Si
Reading potential file pot/Si.sw with DATE: 2007-06-11
mass * 28.0855


####fix ID group-ID thermal/conductivity N edim Nbin keyword value ...
reset_timestep 0

fix 1 all thermal/conductivity ${swap_every} y ${TC_num_layers} swap ${num_swap}
fix 1 all thermal/conductivity 1000 y ${TC_num_layers} swap ${num_swap}
fix 1 all thermal/conductivity 1000 y 90 swap ${num_swap}
fix 1 all thermal/conductivity 1000 y 90 swap 2

fix       2 all nve

#TEMPERATURE PROFILE
compute   KE all ke/atom
variable  temp1 atom c_KE/(1.5*0.00008617)
compute   layers all chunk/atom bin/1d y lower 2.0 #units reduced
fix 3 all ave/chunk 1 ${N_TC} ${N_TC} layers v_temp1 file ${LOC2}/TC-TEMP-PROFILE-5-25
fix 3 all ave/chunk 1 500000 ${N_TC} layers v_temp1 file ${LOC2}/TC-TEMP-PROFILE-5-25
fix 3 all ave/chunk 1 500000 500000 layers v_temp1 file ${LOC2}/TC-TEMP-PROFILE-5-25
fix 3 all ave/chunk 1 500000 500000 layers v_temp1 file ../output/output-2//TC-TEMP-PROFILE-5-25

thermo ${thermo_save}
thermo 1000

variable A equal lx*lz
variable flux equal f_1/((time-0.000000000001)*v_A) #ADD -0.000001 to avoid division by zero
thermo_style custom time temp v_A f_1 v_flux

run ${N_TC}
run 500000
Neighbor list info ...
  1 neighbor list requests
  update every 1 steps, delay 10 steps, check yes
  max neighbors/atom: 2000, page size: 100000
  master list distance cutoff = 5.77118
  ghost atom cutoff = 5.77118
  binsize = 2.88559 -> bins = 10 48 10
Memory usage per processor = 2.65221 Mbytes
Time Temp A 1 flux 
           0    498.95912    740.24445            0           -0 
           1    502.18303    740.24445   0.37063721 0.0005006957 
           2    494.44692    740.24445   0.88139206 0.00059533851 
           3    502.29967    740.24445    1.5031457 0.00067686905 
           4     500.2293    740.24445     1.970211 0.00066539203 
           5    485.33022    740.24445    2.4623872 0.00066529029 
           6    491.99514    740.24445    2.9380155 0.00066149669 
           7     501.6512    740.24445     3.495088 0.00067450459 
           8    495.06083    740.24445    4.0465751 0.00068331737 
           9    506.46317    740.24445    4.3238631 0.0006490143 
          10    499.07664    740.24445    4.7763547 0.00064524018 
          11    499.22338    740.24445    5.2304401 0.00064234802 
          12    495.50375    740.24445    5.6884901 0.00064038419 
          13     490.1471    740.24445    6.0737757 0.00063116112 
          14    496.73709    740.24445    6.4294532 0.00062039865 
          15    491.59089    740.24445    6.8231091 0.00061449152 
          16    501.07732    740.24445    7.3116478 0.00061733389 
          17    495.82018    740.24445    7.6854175 0.00061072174 
          18    497.76045    740.24445    8.1053596 0.00060830953 
          19    500.52163    740.24445    8.5407512 0.0006072497 
          20    492.60215    740.24445     8.872657 0.00059930588 
          21     501.1466    740.24445    9.1536147 0.00058884118 
          22     499.1032    740.24445    9.5866635 0.00058866693 
          23    504.47182    740.24445     10.04934 0.00059024804 
          24    498.32683    740.24445     10.61709 0.0005976117 
          25    504.36769    740.24445    11.000134 0.00059440551 
          26     499.8274    740.24445    11.453651 0.0005951075 
          27    505.68408    740.24445    11.903213 0.00059555969 
          28    499.12794    740.24445     12.33844 0.00059528789 
          29    504.68992    740.24445    12.770574 0.0005948908 
          30    498.66978    740.24445    13.439875 0.00060519984 
          31    507.18389    740.24445    13.888628 0.00060523284 
          32    499.43061    740.24445    14.449291 0.00060998815 
          33    497.96122    740.24445    14.852191  0.000607997 
          34    502.50856    740.24445    15.350873 0.00060992861 
          35    500.12276    740.24445    15.875526 0.00061275226 
          36    494.25821    740.24445    16.439143 0.00061688116 
          37    501.10443    740.24445    16.769281 0.00061226236 
          38     490.5955    740.24445    17.130582 0.0006089945 
          39    500.24009    740.24445    17.550445 0.0006079227 
          40    493.78932    740.24445    17.903826 0.00060465925 
          41     504.4924    740.24445    18.392801 0.00060602265 
          42    501.49884    740.24445    18.812906 0.00060510596 
          43    496.64584    740.24445    19.260377 0.00060509166 
          44    492.59467    740.24445    19.616405 0.00060227049 
          45    500.64165    740.24445    19.935869 0.00059847704 
          46    502.65529    740.24445     20.29597 0.00059604195 
          47    493.92919    740.24445    20.655177 0.00059368477 
          48    500.16993    740.24445    21.012752 0.00059137986 
          49    497.32444    740.24445    21.524641 0.00059342342 
          50    506.95837    740.24445    21.999591 0.00059438718 
          51    496.81128    740.24445    22.382552 0.00059287655 
          52    497.66186    740.24445     22.70742 0.00058991479 
          53     496.7272    740.24445    23.071699 0.00058806936 
          54    502.12619    740.24445     23.47311 0.00058722118 
          55     503.9689    740.24445    23.873333 0.00058637468 
          56    508.07521    740.24445    24.278888 0.00058568702 
          57    496.91898    740.24445    24.702686 0.00058545587 
          58     496.0152    740.24445    25.244778 0.00058798791 
          59    500.23373    740.24445    25.777818 0.00059022688 
          60     502.4133    740.24445    26.250158 0.00059102454 
          61    508.03097    740.24445    26.697767 0.00059124835 
          62     499.6494    740.24445    27.396055 0.00059692695 
          63    501.99614    740.24445    27.966623 0.00059968656 
          64    496.74083    740.24445    28.413546 0.00059975006 
          65    501.68962    740.24445    28.923447 0.00060112048 
          66    493.29973    740.24445    29.329017 0.00060031391 
          67    504.99347    740.24445    29.739078 0.00059962196 
          68    494.70636    740.24445    30.071645 0.00059741085 
          69    495.12593    740.24445    30.439937 0.00059596327 
          70    499.06999    740.24445    30.777214 0.00059395851 
          71    498.20892    740.24445    31.061936 0.00059101025 
          72    496.96141    740.24445    31.622833 0.00059332564 
          73    501.44131    740.24445    32.000539 0.00059218755 
          74    503.61884    740.24445    32.258805 0.00058889978 
          75    496.05778    740.24445    32.657622 0.0005882313 
          76    501.53967    740.24445    33.156555 0.00058935998 
          77    492.17514    740.24445    33.718027 0.00059155656 
          78    496.23161    740.24445    34.068776 0.00059004722 
          79    493.31273    740.24445    34.479622 0.00058960377 
          80    506.98824    740.24445    35.036997 0.00059164572 
          81    497.43216    740.24445    35.582762 0.00059344363 
          82    500.14095    740.24445     35.99402 0.00059298177 
          83    498.13328    740.24445    36.345051 0.00059155078 
          84    491.04354    740.24445    36.708856 0.00059035929 
          85    493.05004    740.24445    37.192821 0.00059110555 
          86    495.99426    740.24445    37.685046 0.00059196419 
          87    497.32957    740.24445    38.029208 0.00059050403 
          88    500.43094    740.24445    38.524559 0.00059139799 
          89     500.7897    740.24445    38.996414 0.00059191522 
          90    499.90585    740.24445    39.367737 0.00059091195 
          91     509.7505    740.24445    39.909703 0.00059246397 
          92    499.53368    740.24445     40.41753 0.00059348094 
          93    495.11964    740.24445    40.782243 0.0005923972 
          94    496.26246    740.24445     41.28963 0.00059338693 
          95    496.54883    740.24445    41.806817 0.00059449518 
          96    502.13459    740.24445    42.182271 0.00059358589 
          97    501.52569    740.24445     42.74239 0.00059526714 
          98     493.8567    740.24445    43.134051 0.00059459193 
          99    493.31527    740.24445    43.757597 0.00059709455 
         100    496.85901    740.24445    44.151194 0.00059644074 
         101    498.86431    740.24445    44.563784 0.00059605389 
         102    497.99123    740.24445    44.952588 0.00059535961 
         103    504.28305    740.24445    45.392833 0.00059535349 
         104    498.28843    740.24445    45.890162 0.00059608898 
         105     493.9814    740.24445    46.526281 0.00059859609 
         106    502.60536    740.24445    47.001188 0.00059900136 
         107    493.98721    740.24445    47.320098 0.00059742954 
         108    497.92521    740.24445    47.655863 0.00059609766 
         109     500.6972    740.24445    48.021897 0.00059516537 
         110    494.23015    740.24445    48.400942 0.00059440981 
         111    489.24581    740.24445    48.677528 0.00059242091 
         112    496.06071    740.24445    49.156652 0.00059291046 
         113    497.21602    740.24445    49.499916 0.00059176715 
         114    499.80085    740.24445    50.068512 0.00059331411 
         115    496.11084    740.24445    50.484015 0.00059303577 
         116    497.81924    740.24445    50.920092 0.00059300183 
         117    499.73502    740.24445    51.325873 0.00059261866 
         118     499.2871    740.24445    51.964634 0.00059490922 
         119    498.94949    740.24445    52.309559 0.00059382563 
         120     494.6322    740.24445    52.719369 0.00059349053 
         121    501.81188    740.24445    53.092669 0.00059275337 
         122    494.86153    740.24445    53.495939 0.00059236014 
         123    501.28726    740.24445    53.946843 0.00059249646 
         124    501.68413    740.24445    54.454898 0.00059325321 
         125    498.52852    740.24445    54.855896 0.00059284088 
         126     499.3158    740.24445    55.201125 0.00059183715 
         127    495.16314    740.24445    55.669134 0.00059215525 
         128     494.5838    740.24445    56.149359 0.0005925973 
         129    494.41318    740.24445     56.51632 0.00059184639 
         130    499.33565    740.24445    57.023991 0.00059256923 
         131    501.74604    740.24445    57.451054 0.00059244979 
         132    495.10789    740.24445    57.828604 0.00059182542 
         133    501.33976    740.24445    58.131479 0.00059045197 
         134    489.90487    740.24445    58.613821 0.00059090828 
         135    500.73629    740.24445    59.061345 0.00059100942 
         136    497.30859    740.24445    59.510836 0.00059112862 
         137    497.51404    740.24445      60.0663 0.00059229102 
         138    488.93747    740.24445    60.674469 0.00059395254 
         139     503.0026    740.24445    61.205101 0.00059483656 
         140    491.97939    740.24445    61.565621 0.00059406651 
         141      490.159    740.24445    61.921657 0.00059326442 
         142    504.01566    740.24445    62.400384 0.00059364083 
         143    498.26299    740.24445    62.827637 0.0005935257 
         144     497.5061    740.24445    63.579865 0.00059646086 
         145    495.77021    740.24445    64.092578 0.00059712407 
         146    499.36542    740.24445    64.409751 0.00059596891 
         147    496.02833    740.24445    64.761165 0.00059514414 
         148    497.95183    740.24445    65.193552 0.00059506961 
         149    500.90301    740.24445    65.649063 0.00059520573 
         150    501.64278    740.24445    66.058162 0.00059492205 
         151    493.03243    740.24445    66.471905 0.00059468368 
         152    496.06083    740.24445    66.914634 0.00059470605 
         153     499.3883    740.24445    67.348477 0.00059464968 
         154     495.0539    740.24445    67.713617 0.00059399137 
         155    498.04217    740.24445    68.081693 0.00059336713 
         156    503.12873    740.24445    68.530341 0.00059344863 
         157    499.12719    740.24445    69.021015 0.00059389071 
         158     500.7823    740.24445    69.632468 0.00059535985 
         159    502.20903    740.24445    70.076334 0.00059538665 
         160     503.2277    740.24445    70.428553 0.00059463932 
         161    501.99042    740.24445    70.914324 0.00059502187 
         162     498.2601    740.24445    71.495641 0.00059619646 
         163    500.45057    740.24445    71.902457 0.00059591041 
         164    504.88547    740.24445    72.480786 0.00059704063 
         165    506.58029    740.24445    72.866411 0.00059657943 
         166    498.86491    740.24445    73.293743 0.00059646319 
         167    497.61078    740.24445    73.674691 0.00059597315 
         168    512.59639    740.24445     74.24296 0.0005969952 
         169    504.11442    740.24445     74.76116 0.00059760493 
         170    501.05447    740.24445    75.237864 0.00059787773 
         171    494.94282    740.24445    75.747159 0.00059840481 
         172    497.34367    740.24445    76.152204 0.00059810698 
         173    503.34878    740.24445    76.533622 0.00059762809 
         174    498.60708    740.24445    76.905236 0.00059707859 
         175    503.22331    740.24445    77.334541 0.00059698072 
         176    504.73896    740.24445    77.769181 0.0005969249 
         177    497.69397    740.24445    78.095961 0.00059604651 
         178    501.04495    740.24445    78.564846 0.00059625646 
         179    509.04796    740.24445    79.069778 0.00059673612 
         180     492.3302    740.24445    79.395211 0.0005958633 
         181    495.13008    740.24445    79.896487 0.00059631255 
         182    503.08871    740.24445    80.231746 0.00059552458 
         183    500.01336    740.24445    80.695332 0.00059569254 
         184    497.51691    740.24445    81.259835 0.00059659959 
         185    501.95046    740.24445    81.723395 0.00059675974 
         186    496.86892    740.24445    82.305938 0.00059778231 
         187    503.54234    740.24445    82.718061 0.00059756283 
         188    498.48259    740.24445    83.132853 0.00059736487 
         189    497.60485    740.24445    83.575491 0.00059736802 
         190    501.60113    740.24445    83.942789 0.00059683548 
         191    503.05422    740.24445    84.284727 0.00059612914 
         192    504.02003    740.24445    84.714031 0.00059604488 
         193    494.70401    740.24445    85.049931 0.0005953077 
         194    496.35623    740.24445    85.491396 0.00059531321 
         195    493.97798    740.24445    86.011516 0.00059586357 
         196    495.42089    740.24445    86.415325 0.00059560665 
         197    499.09666    740.24445    86.830541 0.00059543056 
         198    500.92995    740.24445    87.310356 0.00059569699 
         199     497.0456    740.24445    87.842317 0.00059631474 
         200    506.03388    740.24445    88.256569 0.00059613124 
         201    500.08786    740.24445    88.604536 0.00059550408 
         202    497.29882    740.24445    88.934844 0.00059476502 
         203    493.26453    740.24445    89.426396 0.00059510627 
         204    492.64577    740.24445    89.876745 0.00059517134 
         205    500.39022    740.24445    90.409999 0.00059578209 
         206    502.44982    740.24445    90.805636 0.00059548445 
         207    495.88363    740.24445    91.178079 0.00059503832 
         208    500.88049    740.24445    91.600915 0.00059492376 
         209    503.16539    740.24445    91.976069 0.00059450211 
         210    499.43546    740.24445    92.290095 0.00059369123 
         211    499.62725    740.24445    92.686189 0.00059341348 
         212    504.66623    740.24445    93.034744 0.00059283543 
         213    505.31895    740.24445    93.600808 0.00059364229 
         214    502.21489    740.24445     94.07154 0.00059383983 
         215      497.482    740.24445    94.439754 0.00059339137 
         216    495.94884    740.24445    95.089385 0.0005947071 
         217    503.72162    740.24445    95.494618 0.00059448925 
         218      503.021    740.24445    95.819067 0.00059377278 
         219    506.39609    740.24445    96.337038 0.0005942566 
         220     498.0164    740.24445    96.754696 0.00059412005 
         221    497.31824    740.24445    97.164615 0.00059393744 
         222    502.77785    740.24445    97.604451 0.00059393851 
         223    503.36542    740.24445    98.003247 0.00059369096 
         224    495.73641    740.24445    98.377659 0.00059329858 
         225     508.7886    740.24445    98.884841 0.00059370682 
         226     496.7501    740.24445    99.260284  0.000593324 
         227    497.31706    740.24445     99.75773 0.0005936706 
         228    501.03908    740.24445    100.35345 0.00059459645 
         229    497.67351    740.24445    100.90259 0.0005952394 
         230     496.7726    740.24445    101.41422 0.00059565647 
         231    492.36295    740.24445    101.73535 0.00059495583 
         232    497.93683    740.24445    102.15981 0.00059486299 
         233    495.84224    740.24445     102.6824 0.00059533983 
         234     496.7233    740.24445    103.03394 0.00059482512 
         235    496.79833    740.24445    103.35367 0.00059413191 
         236    496.27384    740.24445    103.78723 0.00059409617 
         237    497.71648    740.24445    104.29129 0.00059446261 
         238    496.86801    740.24445    104.93986 0.00059564616 
         239    493.37759    740.24445    105.32913 0.0005953542 
         240    490.34352    740.24445    105.82341 0.00059565574 
         241    500.95703    740.24445     106.1306 0.00059490608 
         242    500.46259    740.24445    106.46549 0.00059431723 
         243    502.56491    740.24445     106.9251 0.0005944266 
         244    502.14039    740.24445    107.43713 0.00059482527 
         245    501.47478    740.24445    107.81025 0.00059445478 
         246    497.98695    740.24445    108.31319 0.00059480016 
         247    499.63826    740.24445    108.72998 0.00059467158 
         248    498.95655    740.24445    109.10143 0.00059429711 
         249    500.03465    740.24445    109.47025 0.00059391133 
         250    503.04583    740.24445    109.87441 0.00059371962 
         251    500.50846    740.24445    110.55166 0.00059499923 
         252    496.00008    740.24445    110.95092 0.00059477844 
         253    501.87241    740.24445    111.34345 0.00059452344 
         254    501.04437    740.24445    111.78184 0.00059451439 
         255    502.68904    740.24445     112.1688 0.00059423295 
         256    503.04555    740.24445    112.56609 0.00059400823 
         257    497.12992    740.24445    113.04744 0.00059422711 
         258    502.01939    740.24445    113.62413 0.00059494349 
         259    503.33445    740.24445    114.13302 0.0005953007 
         260    501.85394    740.24445    114.60881 0.00059548319 
         261    497.70504    740.24445    115.15709 0.00059603946 
         262    499.51022    740.24445     115.5003 0.00059553414 
         263    490.70396    740.24445    116.10861 0.00059639435 
         264    508.12309    740.24445    116.66033 0.00059695846 
         265    494.76372    740.24445    117.10546 0.00059697496 
         266     496.7357    740.24445    117.44985 0.00059647972 
         267    498.74973    740.24445    117.84266 0.00059623315 
         268    495.13467    740.24445    118.22236 0.00059592234 
         269    504.38285    740.24445    118.52923 0.00059524813 
         270    505.31188    740.24445    119.00933 0.00059544559 
         271    497.34843    740.24445    119.51889 0.00059578846 
         272    505.45837    740.24445    120.01489 0.00059606151 
         273    503.99528    740.24445    120.46788 0.00059611967 
         274    487.71897    740.24445    120.94976 0.0005963199 
         275    498.99423    740.24445     121.2832 0.00059578945 
         276    496.04572    740.24445     121.8438 0.00059637469 
         277    497.85379    740.24445    122.31169 0.00059650357 
         278    499.95365    740.24445    122.69202  0.000596206 
         279     504.8891    740.24445    123.23552 0.00059670067 
         280    497.04854    740.24445     123.5112 0.00059589969 
         281    498.33855    740.24445    123.99799 0.00059611927 
         282    494.45216    740.24445    124.51821 0.00059649747 
         283     505.1353    740.24445    124.88254 0.00059612883 
         284    497.31948    740.24445    125.39905 0.00059648668 
         285    499.90868    740.24445     126.0046 0.00059726406 
         286    498.97978    740.24445    126.45355 0.00059729631 
         287    502.14353    740.24445    126.85645 0.0005971116 
         288    501.56901    740.24445    127.25742 0.00059691908 
         289    506.18711    740.24445    127.69372 0.00059689305 
         290    499.53945    740.24445    128.17025 0.00059705463 
         291    495.88336    740.24445    128.62382 0.00059710852 
         292    493.18952    740.24445     129.0815 0.00059718099 
         293     502.0503    740.24445    129.51817 0.00059715615 
         294    494.22255    740.24445    129.91842 0.00059696412 
         295    504.44613    740.24445    130.31982 0.00059677869 
         296    503.19506    740.24445    130.77397 0.0005968352 
         297    498.34015    740.24445    131.40034 0.00059767471 
         298     496.9842    740.24445    132.01587 0.00059845945 
         299    497.26694    740.24445    132.42279 0.00059829641 
         300    490.78351    740.24445    133.00068 0.0005989043 
         301    496.87301    740.24445    133.50277 0.00059916803 
         302    504.71079    740.24445     133.8894 0.00059891347 
         303    506.59982    740.24445    134.40505 0.00059923586 
         304    491.22056    740.24445    134.91751 0.00059954193 
         305    496.07915    740.24445    135.27187 0.00059914579 
         306    493.40342    740.24445    135.84156 0.00059970278 
         307    493.61638    740.24445    136.23811 0.00059949432 
         308    499.12807    740.24445    136.68863 0.00059952392 
         309    500.41358    740.24445     137.0502 0.00059916445 
         310    498.73675    740.24445    137.48655 0.00059913317 
         311     492.7744    740.24445    138.03937  0.000599608 
         312    501.63083    740.24445    138.66065 0.00060037619 
         313    502.19462    740.24445     139.1142 0.00060041558 
         314    502.79543    740.24445    139.56444 0.00060044049 
         315    502.01139    740.24445     139.9718 0.00060028131 
         316    495.17832    740.24445    140.29507 0.00059976368 
         317    495.73085    740.24445    140.80737 0.00060005487 
         318    503.33567    740.24445    141.22865 0.00059995757 
         319     498.6994    740.24445    141.61486 0.00059971232 
         320    505.49734    740.24445    142.15358 0.0006001125 
         321    504.84054    740.24445    142.66145 0.00060038029 
         322    495.11072    740.24445    142.97656 0.00059983779 
         323    495.53344    740.24445    143.52844 0.00060028884 
         324    501.24618    740.24445    143.89614 0.00059996921 
         325    497.57972    740.24445    144.43961 0.00060038217 
         326    502.13005    740.24445    144.90343 0.00060046253 
         327    504.69564    740.24445    145.40176 0.00060068493 
         328    496.91932    740.24445    145.87704 0.00060081111 
         329    493.01806    740.24445    146.29283 0.00060069218 
         330    502.46368    740.24445    146.72904 0.0006006576 
         331    496.03223    740.24445    147.22909 0.00060088377 
         332    493.04002    740.24445    147.55145 0.00060038557 
         333    496.27503    740.24445    148.06668 0.00060067277 
         334    497.54972    740.24445    148.53866 0.00060078334 
         335    493.72292    740.24445    149.08466 0.00060119172 
         336     507.6956    740.24445    149.51563 0.00060113521 
         337    506.92827    740.24445    150.02752 0.00060140337 
         338    490.42278    740.24445    150.52359 0.00060160677 
         339     497.9841    740.24445    150.91951 0.00060140985 
         340    497.63545    740.24445    151.40126 0.00060155511 
         341    497.87721    740.24445    151.79421 0.00060134771 
         342    502.81499    740.24445    152.24756 0.00060138012 
         343    504.27294    740.24445      152.689 0.00060136544 
         344    497.53404    740.24445    153.11104 0.00060127467 
         345    500.70667    740.24445    153.49597 0.00060103908 
         346    497.77522    740.24445    154.06188 0.00060151149 
         347    506.53041    740.24445    154.43978 0.00060124925 
         348    498.79946    740.24445    154.77235 0.00060081252 
         349    498.80806    740.24445    155.12604 0.00060046005 
         350    503.75556    740.24445    155.52106 0.00060026911 
         351    495.01446    740.24445    155.86563 0.00059988509 
         352    494.84028    740.24445    156.54698 0.00060079577 
         353    499.14271    740.24445    156.87367 0.00060034401 
         354    496.66524    740.24445    157.25058 0.00060008648 
         355    506.23424    740.24445    157.66034 0.00059995537 
         356    497.87813    740.24445    158.05928 0.00059978396 
         357    507.04328    740.24445    158.34547 0.00059918685 
         358    504.15903    740.24445    158.75268 0.00059904975 
         359    500.19093    740.24445    159.15213 0.00059888418 
         360    502.27265    740.24445    159.62663 0.00059900118 
         361    494.60003    740.24445    160.18935 0.00059944767 
         362    498.72263    740.24445     160.6861 0.00059964548 
         363    502.39686    740.24445    161.05902 0.00059938141 
         364    502.83734    740.24445    161.42529 0.00059909409 
         365     501.9347    740.24445    162.02106 0.00059965774 
         366    508.71253    740.24445    162.48418 0.00059972871 
         367    496.19439    740.24445    162.99899 0.00059998956 
         368    504.46264    740.24445    163.54973 0.00060038088 
         369    495.74792    740.24445    163.88212 0.00059997071 
         370    499.93859    740.24445    164.34583 0.0006000422 
         371    502.42136    740.24445    164.84722 0.00060025053 
         372    507.39802    740.24445    165.33066 0.00060039254 
         373    496.18451    740.24445     165.8731 0.00060074749 
         374    496.56465    740.24445    166.25078 0.00060050541 
         375    500.60674    740.24445    166.52943 0.00059990786 
         376    491.50045    740.24445    166.89563 0.00059962808 
         377    498.19628    740.24445    167.23765 0.00059926312 
         378    495.42562    740.24445    167.70691 0.00059935483 
         379    495.51314    740.24445    168.05381 0.00059900988 
         380     498.4006    740.24445    168.54918 0.00059919461 
         381    499.92316    740.24445    169.03269 0.00059933626 
         382    498.35112    740.24445    169.51064 0.00059945757 
         383    493.43219    740.24445    169.88354 0.00059920767 
         384    494.10741    740.24445    170.26929 0.0005990043 
         385     495.1963    740.24445    170.72681 0.00059905383 
         386    500.99875    740.24445    171.04877 0.00059862865 
         387    498.49866    740.24445     171.4198 0.00059837694 
         388    497.56973    740.24445    171.90185 0.00059851312 
         389    501.95486    740.24445    172.45623 0.00059889974 
         390     492.4877    740.24445    172.99217 0.00059922053 
         391       501.19    740.24445    173.38892 0.00059905876 
         392    507.61232    740.24445    173.74154 0.00059874573 
         393    501.50606    740.24445    174.11456 0.00059850444 
         394    494.68914    740.24445    174.49783 0.0005982995 
         395    499.40952    740.24445    175.01568 0.00059855587 
         396    484.30281    740.24445    175.52264 0.0005987738 
         397    499.74018    740.24445    175.99117 0.00059885986 
         398    495.34163    740.24445    176.49999 0.00059908225 
         399    507.55068    740.24445    176.84663 0.00059875441 
         400    499.90511    740.24445    177.20387 0.00059846402 
         401    497.17427    740.24445    177.71507 0.00059869374 
         402    496.93378    740.24445    178.05538 0.00059834807 
         403    503.94829    740.24445    178.45802 0.00059821301 
         404    500.14148    740.24445    178.89832 0.0005982046 
         405    504.41728    740.24445    179.27004 0.00059796744 
         406    499.51943    740.24445    179.65339 0.00059777015 
         407    498.94848    740.24445    180.14369 0.00059792881 
         408    503.43181    740.24445    180.61408 0.00059802078 
         409    498.18751    740.24445    181.04435 0.0005979798 
         410    498.20008    740.24445    181.42122 0.00059776306 
         411    492.28668    740.24445      181.978 0.00059813872 
         412    500.40535    740.24445    182.32823 0.00059783528 
         413    495.61547    740.24445    182.73752 0.00059772651 
         414     492.3022    740.24445    183.30485 0.00059813394 
         415    490.32764    740.24445    183.87597 0.00059855178 
         416     499.9677    740.24445    184.26974 0.00059839164 
         417    500.86769    740.24445    184.84492   0.00059882 
         418    499.97164    740.24445    185.34392 0.00059900011 
         419    504.78132    740.24445    185.70295 0.00059872807 
         420    499.94841    740.24445    186.13604 0.00059869554 
         421    489.37812    740.24445    186.63072 0.00059886077 
         422    486.91557    740.24445     187.0877 0.00059890456 
         423    500.05378    740.24445    187.57032 0.00059903003 
         424    509.07246    740.24445    188.14027 0.00059943312 
         425    494.79687    740.24445    188.48726 0.00059912565 
         426    502.68058    740.24445    188.85174 0.00059887506 
         427    505.93345    740.24445    189.26013 0.00059876457 
         428    495.71349    740.24445    189.68688 0.00059871256 
         429    499.43802    740.24445    190.02438 0.00059837973 
         430    504.21818    740.24445    190.54461 0.00059862252 
         431    501.91238    740.24445    191.01942 0.00059872184 
         432    500.10964    740.24445    191.48852 0.00059880281 
         433    499.79874    740.24445     191.9489 0.00059885624 
         434    508.83051    740.24445    192.47318 0.00059910828 
         435    496.03222    740.24445    192.78334 0.00059869424 
         436    496.59324    740.24445    193.27653 0.0005988492 
         437    495.13512    740.24445    193.75187 0.00059894826 
         438    495.42132    740.24445    194.37245 0.00059949484 
         439    499.45264    740.24445    194.93756 0.00059986821 
         440    491.60507    740.24445    195.29048 0.00059958841 
         441    501.13012    740.24445     195.7924 0.00059976633 
         442     500.8862    740.24445    196.26168 0.00059984367 
         443    499.55167    740.24445    196.76208 0.00060001557 
         444    495.09673    740.24445    197.17787 0.00059992924 
         445    496.14415    740.24445    197.72053 0.00060022849 
         446    499.55602    740.24445     198.2198 0.00060039492 
         447    490.29842    740.24445    198.75663 0.00060067414 
         448    495.11306    740.24445    199.09551 0.00060035521 
         449    497.83445    740.24445    199.50319 0.00060024471 
         450     502.4091    740.24445     199.7588 0.00059967819 
         451    487.55624    740.24445    200.24241 0.00059979709 
         452    496.67947    740.24445    200.70446 0.00059985106 
         453     502.5763    740.24445    201.10555  0.000599723 
         454    493.65041    740.24445    201.60894 0.00059989988 
         455    503.30222    740.24445    201.97905 0.00059968028 
         456    497.65884    740.24445    202.42907 0.00059969837 
         457    497.53553    740.24445    202.80925 0.00059950994 
         458    495.55675    740.24445    203.22862 0.00059943795 
         459    498.38393    740.24445    203.57412 0.00059914882 
         460    500.44749    740.24445    204.10152 0.00059939518 
         461    504.