
units 		metal
dimension	3
boundary	p	p	p
atom_style	atomic

###READ ATOMS
read_data ${LOC2}/TC-EQ-STRUCTURE-5-5
read_data ../output/output-2//TC-EQ-STRUCTURE-5-5
  orthogonal box = (-1.10372 -1.10372 -1.10372) to (26.1037 26.1037 26.1037)
  2 by 2 by 2 MPI processor grid
  reading atoms ...
  1000 atoms
  reading velocities ...
  1000 velocities

###load potential
pair_style sw
pair_coeff * * pot/Si.sw Si
Reading potential file pot/Si.sw with DATE: 2007-06-11
mass * 28.0855


####fix ID group-ID thermal/conductivity N edim Nbin keyword value ...
reset_timestep 0

fix 1 all thermal/conductivity ${swap_every} y ${TC_num_layers} swap ${num_swap}
fix 1 all thermal/conductivity 200 y ${TC_num_layers} swap ${num_swap}
fix 1 all thermal/conductivity 200 y 18 swap ${num_swap}
fix 1 all thermal/conductivity 200 y 18 swap 2

fix       2 all nve

#TEMPERATURE PROFILE
compute   KE all ke/atom
variable  temp1 atom c_KE/(1.5*0.00008617)
compute   layers all chunk/atom bin/1d y lower 2.0 #units reduced
fix 3 all ave/chunk 1 ${N_TC} ${N_TC} layers v_temp1 file ${LOC2}/TC-TEMP-PROFILE-5-5
fix 3 all ave/chunk 1 500000 ${N_TC} layers v_temp1 file ${LOC2}/TC-TEMP-PROFILE-5-5
fix 3 all ave/chunk 1 500000 500000 layers v_temp1 file ${LOC2}/TC-TEMP-PROFILE-5-5
fix 3 all ave/chunk 1 500000 500000 layers v_temp1 file ../output/output-2//TC-TEMP-PROFILE-5-5

thermo ${thermo_save}
thermo 200

variable A equal lx*lz
variable flux equal f_1/((time-0.000000000001)*v_A) #ADD -0.000001 to avoid division by zero
thermo_style custom time temp v_A f_1 v_flux

run ${N_TC}
run 500000
Neighbor list info ...
  1 neighbor list requests
  update every 1 steps, delay 10 steps, check yes
  max neighbors/atom: 2000, page size: 100000
  master list distance cutoff = 5.77118
  ghost atom cutoff = 5.77118
  binsize = 2.88559 -> bins = 10 10 10
Memory usage per processor = 2.62795 Mbytes
Time Temp A 1 flux 
           0    489.10711    740.24445            0           -0 
         0.2    515.31864    740.24445   0.36608657 0.0024727411 
         0.4    485.10356    740.24445   0.79284375 0.0026776417 
         0.6     480.2839    740.24445    1.1963234 0.0026935323 
         0.8    501.18841    740.24445    1.5331314 0.0025888937 
           1    510.09968    740.24445    1.8959581 0.0025612595 
         1.2    491.97876    740.24445    2.2886137 0.0025764166 
         1.4    507.56594    740.24445    2.7383026 0.0026422764 
         1.6    493.15308    740.24445    3.1468327 0.0026569202 
         1.8    513.11472    740.24445    3.7617215 0.0028231826 
           2    496.61253    740.24445    4.2924285 0.0028993317 
         2.2    523.60552    740.24445    4.7583291 0.0029218414 
         2.4      511.735    740.24445    5.2002025  0.002927075 
         2.6    485.39423    740.24445    5.6184317 0.0029192185 
         2.8    517.74279    740.24445    6.0292395 0.0029089037 
           3     493.1834    740.24445    6.4459948 0.0029026424 
         3.2    498.59366    740.24445    6.8776493 0.0029034536 
         3.4     513.4367    740.24445    7.3988118 0.0029397331 
         3.6    510.11028    740.24445    7.7887643 0.0029227448 
         3.8    493.02774    740.24445    8.1638704 0.0029022669 
           4    499.69243    740.24445    8.6029282 0.0029054349 
         4.2    507.33342    740.24445    8.9994211 0.0028946104 
         4.4    509.37837    740.24445    9.5976492 0.0029467075 
         4.6    507.31532    740.24445    10.170674 0.0029868728 
         4.8     502.1354    740.24445    10.698962 0.0030111004 
           5    496.17165    740.24445    11.123798 0.0030054392 
         5.2    514.10131    740.24445    11.524869 0.0029940393 
         5.4    484.10819    740.24445    11.853769 0.0029654291 
         5.6    516.68948    740.24445    12.319471 0.0029718636 
         5.8    493.86309    740.24445    12.754009 0.0029705958 
           6    504.18543    740.24445    13.228059 0.0029783087 
         6.2     488.8999    740.24445    13.527544 0.0029474883 
         6.4    495.03299    740.24445    13.889818 0.0029318477 
         6.6    516.37044    740.24445    14.440594 0.0029557382 
         6.8    497.03847    740.24445    14.922547 0.0029645506 
           7    486.82778    740.24445    15.373247 0.0029668281 
         7.2    503.53656    740.24445    15.791227 0.0029628401 
         7.4    492.18877    740.24445    16.137432 0.0029459647 
         7.6    515.13139    740.24445     16.56761 0.0029449039 
         7.8    489.72813    740.24445     17.06495 0.0029555291 
           8    493.73038    740.24445    17.551018   0.00296372 
         8.2    487.84387    740.24445    18.055607 0.0029745623 
         8.4    513.21499    740.24445     18.42577 0.0029632698 
         8.6    488.15908    740.24445    18.867331 0.0029637179 
         8.8    515.43936    740.24445    19.325441  0.002966686 
           9    512.89113    740.24445    19.678602 0.0029537693 
         9.2    510.15476    740.24445    20.043879 0.0029431933 
         9.4    495.19784    740.24445    20.556272 0.0029542099 
         9.6    510.17037    740.24445    21.000079  0.002955116 
         9.8    480.96847    740.24445    21.478657 0.0029607782 
          10     517.0682    740.24445    21.841688 0.0029506047 
        10.2    492.52507    740.24445    22.183066 0.0029379624 
        10.4    504.28417    740.24445    22.759131 0.0029562909 
        10.6    511.07343    740.24445     23.21015 0.0029579915 
        10.8    488.86171    740.24445    23.696828 0.0029640895 
          11    502.48606    740.24445    24.132501 0.0029637017 
        11.2    521.41817    740.24445    24.475151 0.0029521077 
        11.4    486.28111    740.24445    24.805719 0.0029394888 
        11.6    486.62966    740.24445    25.253116 0.0029409106 
        11.8    506.65674    740.24445    25.638142 0.0029351438 
          12    491.02037    740.24445    26.128605 0.0029414388 
        12.2    505.00962    740.24445    26.554196 0.0029403442 
        12.4    501.55246    740.24445    26.987293 0.0029401026 
        12.6    500.51525    740.24445    27.459119 0.0029440209 
        12.8    488.68643    740.24445    27.830407 0.0029372061 
          13    499.97759    740.24445    28.190404 0.0029294278 
        13.2    512.05137    740.24445    28.579776 0.0029248913 
        13.4     491.7189    740.24445    28.891451 0.0029126574 
        13.6    515.29241    740.24445     29.33821 0.0029142012 
        13.8    499.74057    740.24445    29.715297 0.0029088802 
          14    500.80313    740.24445    30.130372 0.0029073766 
        14.2    487.77685    740.24445    30.453991 0.0028972149 
        14.4    495.27672    740.24445    30.818285 0.0028911512 
        14.6    496.18936    740.24445    31.340933 0.0028999059 
        14.8    498.28549    740.24445    31.744567 0.0028975606 
          15    502.57176    740.24445    32.181605 0.0028982863 
        15.2    497.12146    740.24445    32.609446 0.0028981754 
        15.4    506.46613    740.24445    33.042633 0.0028985365 
        15.6    497.28419    740.24445    33.569496 0.0029070002 
        15.8    512.13249    740.24445    34.082965 0.0029141045 
          16    489.29993    740.24445    34.572948 0.0029190482 
        16.2     504.6582    740.24445    35.042911 0.0029222004 
        16.4    488.35005    740.24445    35.413594 0.0029170978 
        16.6    513.27882    740.24445    35.805629 0.0029138558 
        16.8    506.17983    740.24445    36.168149 0.0029083176 
          17    516.48593    740.24445    36.652532 0.0029125937 
        17.2    500.40136    740.24445    37.177351 0.0029199461 
        17.4    506.56781    740.24445    37.641959 0.0029224548 
        17.6    489.12611    740.24445    37.995131 0.0029163532 
        17.8    500.81014    740.24445    38.373272 0.0029122836 
          18    505.53033    740.24445    38.783738 0.0029107305 
        18.2    504.29764    740.24445    39.161624 0.0029067933 
        18.4    515.30538    740.24445    39.564637 0.0029047864 
        18.6    521.57789    740.24445    39.913019 0.0028988549 
        18.8    479.27774    740.24445    40.296733 0.0028955884 
          19    502.42096    740.24445    40.772124 0.0028989089 
        19.2    494.57355    740.24445    41.331426 0.0029080643 
        19.4    496.30757    740.24445    41.698949 0.0029036765 
        19.6    492.23593    740.24445    41.979849 0.0028934078 
        19.8    497.89543    740.24445    42.431282 0.0028949815 
          20    506.14907    740.24445     42.87021 0.0028956793 
        20.2      496.114    740.24445    43.268301 0.0028936321 
        20.4    490.27319    740.24445    43.706384 0.0028942734 
        20.6     488.0264    740.24445    44.134141 0.0028942251 
        20.8    493.40307    740.24445    44.558635 0.0028939657 
          21    504.22733    740.24445    44.985899 0.0028938895 
        21.2    501.34213    740.24445    45.412906 0.0028937984 
        21.4    507.48914    740.24445    45.862066 0.0028951074 
        21.6    492.13953    740.24445     46.32041 0.0028969666 
        21.8    500.02064    740.24445     46.73341 0.0028959818 
          22    515.23265    740.24445    47.070691 0.0028903653 
        22.2    485.09842    740.24445    47.634288 0.0028986217 
        22.4    493.10115    740.24445    48.030893 0.0028966597 
        22.6    499.75417    740.24445    48.465879 0.0028970267 
        22.8    495.44516    740.24445    48.986173 0.0029024417 
          23    504.54603    740.24445    49.317195 0.0028966457 
        23.2    494.32982    740.24445    49.651883  0.002891163 
        23.4    491.28518    740.24445    50.150501 0.0028952379 
        23.6    495.27275    740.24445    50.502561 0.0028908545 
        23.8    505.83783    740.24445    50.839987 0.0028857142 
          24    511.11507    740.24445    51.140752 0.0028785959 
        24.2    509.27421    740.24445    51.592632  0.002880031 
        24.4    499.53428    740.24445    52.128731 0.0028861053 
        24.6     497.5722    740.24445    52.456181 0.0028806229 
        24.8    525.04699    740.24445    53.019284 0.0028880654 
          25    488.49144    740.24445    53.398732 0.0028854648 
        25.2     496.9854    740.24445    53.864053 0.0028875089 
        25.4    502.55602    740.24445    54.319325 0.0028889864 
        25.6    510.43234    740.24445    54.789163 0.0028912093 
        25.8    501.32285    740.24445    55.268201 0.0028938796 
          26    484.72609    740.24445    55.586669 0.0028881659 
        26.2       499.38    740.24445    56.118161 0.0028935232 
        26.4     499.0174    740.24445    56.521383 0.0028922358 
        26.6    504.04108    740.24445    57.101455 0.0028999491 
        26.8    506.18665    740.24445    57.512816 0.0028990432 
          27    489.16172    740.24445     58.05666 0.0029047792 
        27.2    490.84182    740.24445    58.494757 0.0029051789 
        27.4    498.09482    740.24445    59.063438 0.0029120109 
        27.6    499.39415    740.24445    59.429363 0.0029088199 
        27.8     494.9182    740.24445    59.816903 0.0029067251 
          28    482.83243    740.24445    60.279978 0.0029083046 
        28.2    507.33524    740.24445    60.662396 0.0029059979 
        28.4    482.40449    740.24445    61.077025 0.0029052558 
        28.6    502.56461    740.24445    61.503595 0.0029050881 
        28.8    509.24237    740.24445    61.906335  0.002903805 
          29     500.2862    740.24445    62.245474 0.0028995768 
        29.2    502.75363    740.24445    62.722875 0.0029018031 
        29.4    497.76552    740.24445    63.148935 0.0029016401 
        29.6    499.56845    740.24445    63.605731  0.002902882 
        29.8     504.9073    740.24445    64.084349 0.0029050964 
          30    502.06017    740.24445    64.487485 0.0029038824 
        30.2    519.13765    740.24445    64.954352 0.0029055353 
        30.4    493.08182    740.24445    65.354833 0.0029042164 
        30.6    496.16233    740.24445    65.823879 0.0029059416 
        30.8    490.63117    740.24445    66.081563 0.0028983741 
          31    512.05529    740.24445    66.387534 0.0028930083 
        31.2    499.61956    740.24445    66.763637  0.002890748 
        31.4    515.45113    740.24445    67.275324 0.0028943496 
        31.6    490.56199    740.24445    67.630004 0.0028911936 
        31.8    489.31683    740.24445    68.035807  0.002890249 
          32     511.2806    740.24445      68.5413 0.0028935247 
        32.2    501.36494    740.24445    68.915205 0.0028912392 
        32.4    497.88483    740.24445    69.335939 0.0028909344 
        32.6    519.99491    740.24445    69.844961 0.0028942918 
        32.8    498.06431    740.24445    70.240413 0.0028929308 
          33    514.83362    740.24445    70.626268 0.0028911935 
        33.2    497.32868    740.24445    71.093185 0.0028927755 
        33.4    514.65784    740.24445    71.518823 0.0028926689 
        33.6    501.57766    740.24445     72.10359 0.0028989615 
        33.8    505.49244    740.24445    72.537178 0.0028991374 
          34    500.76773    740.24445    72.943874 0.0028982427 
        34.2     507.5445    740.24445    73.519759 0.0029040414 
        34.4    494.94118    740.24445    73.851559 0.0029001874 
        34.6    503.91544    740.24445    74.574248 0.0029116397 
        34.8    496.51693    740.24445    74.985523 0.0029108714 
          35    507.31226    740.24445    75.350872 0.0029083393 
        35.2    498.12398    740.24445    75.655562 0.0029035081 
        35.4    513.18204    740.24445    76.236031 0.0029092554 
        35.6    478.48346    740.24445    76.592537 0.0029064396 
        35.8    489.13517    740.24445    76.915494 0.0029023892 
          36    519.48718    740.24445    77.388833 0.0029040269 
        36.2    489.09183    740.24445    77.919244 0.0029077764 
        36.4    507.16971    740.24445    78.260213 0.0029044539 
        36.6    503.01925    740.24445     78.60433 0.0029012839 
        36.8    502.92507    740.24445    78.920637 0.0028971275 
          37    492.19117    740.24445    79.312373   0.00289577 
        37.2    509.66168    740.24445    79.717658 0.0028949191 
        37.4    486.61261    740.24445    80.273431  0.002899513 
        37.6    495.15012    740.24445    80.686838 0.0028989431 
        37.8    491.50961    740.24445    81.075821 0.0028975063 
          38    488.03461    740.24445    81.576562 0.0029000577 
        38.2    490.95747    740.24445    82.003426 0.0028999698 
        38.4    493.30948    740.24445    82.398316 0.0028987579 
        38.6     524.4626    740.24445    82.769339 0.0028967234 
        38.8    510.17902    740.24445     83.19337 0.0028965553 
          39    497.41733    740.24445    83.561549 0.0028944544 
        39.2    513.91409    740.24445    83.909291 0.0028916706 
        39.4    503.29639    740.24445    84.309614 0.0028907179 
        39.6    524.33829    740.24445    84.711644 0.0028898331 
        39.8    491.51038    740.24445    85.327378 0.0028962108 
          40    494.85641    740.24445    85.910341 0.0029014179 
        40.2    494.31223    740.24445    86.357512   0.00290201 
        40.4     503.4037    740.24445    86.760719 0.0029011262 
        40.6    495.91398    740.24445      87.2239 0.0029022466 
        40.8    516.01662    740.24445    87.621015 0.0029011685 
          41    510.20269    740.24445    88.063499 0.0029015958 
        41.2    513.40644    740.24445    88.298499 0.0028952158 
        41.4    484.25647    740.24445    88.645105 0.0028925392 
        41.6    500.25472    740.24445    89.088171 0.0028930208 
        41.8    511.76366    740.24445    89.662908 0.0028977531 
          42      498.093    740.24445    89.982242 0.0028942255 
        42.2    494.35922    740.24445    90.361841 0.0028926605 
        42.4    514.05473    740.24445    90.817437 0.0028935316 
        42.6    515.51845    740.24445    91.257697 0.0028939082 
        42.8      495.068    740.24445    91.728525 0.0028952461 
          43     516.2301    740.24445    92.324994 0.0029005187 
        43.2    499.87591    740.24445    92.728353 0.0028997038 
        43.4    493.84492    740.24445    93.127511 0.0028987657 
        43.6    477.61036    740.24445    93.571568 0.0028992273 
        43.8    507.85912    740.24445    94.046709 0.0029006434 
          44    493.50933    740.24445    94.596209 0.0029043296 
        44.2     496.5092    740.24445    95.036486 0.0029046442 
        44.4    503.73063    740.24445    95.457863 0.0029043809 
        44.6    496.78931    740.24445    95.897981 0.0029046877 
        44.8    506.83298    740.24445    96.295964 0.0029037212 
          45     502.0941    740.24445     96.75983 0.0029047411 
        45.2     511.3503    740.24445    97.201833 0.0029050985 
        45.4     494.6375    740.24445    97.544451 0.0029024955 
        45.6    505.93581    740.24445    98.037419 0.0029043695 
        45.8    498.39027    740.24445    98.612968 0.0029086629 
          46    498.13764    740.24445    99.022438 0.0029080417 
        46.2    488.64704    740.24445    99.439121 0.0029076367 
        46.4      509.275    740.24445    99.761714 0.0029044959 
        46.6     500.8301    740.24445    100.10271 0.0029019153 
        46.8     488.3309    740.24445    100.58471 0.0029034272 
          47     501.7892    740.24445    101.07753 0.0029052371 
        47.2    499.39786    740.24445    101.62451  0.002908582 
        47.4     528.7504    740.24445    102.09372 0.0029096819 
        47.6    489.89588    740.24445    102.40349 0.0029062478 
        47.8    494.94771    740.24445     102.8268 0.0029060513 
          48    491.11347    740.24445    103.33203 0.0029081617 
        48.2    501.45546    740.24445    103.68303 0.0029059323 
        48.4    500.65228    740.24445    104.11994 0.0029061189 
        48.6    502.67688    740.24445    104.48244 0.0029042357 
        48.8    504.70371    740.24445    104.81337  0.002901494 
          49    495.95756    740.24445    105.26883 0.0029022081 
        49.2    506.46259    740.24445    105.74859 0.0029035834 
        49.4    492.26573    740.24445    106.12743 0.0029021881 
        49.6    505.84618    740.24445    106.61973  0.002903894 
        49.8    497.88258    740.24445    107.00013 0.0029025506 
          50    490.14906    740.24445    107.33517 0.0028999925 
        50.2    489.49763    740.24445    107.68833 0.0028979425 
        50.4    493.11607    740.24445    108.33378 0.0029037433 
        50.6    492.82121    740.24445    108.80347 0.0029048057 
        50.8    509.72218    740.24445    109.28136 0.0029060776 
          51    485.65609    740.24445    109.74517 0.0029069668 
        51.2    492.51447    740.24445     110.1612 0.0029065883 
        51.4    503.92216    740.24445    110.51072 0.0029044649 
        51.6    500.28273    740.24445    110.85906 0.0029023269 
        51.8    505.66994    740.24445    111.33968 0.0029036553 
          52    497.47642    740.24445    111.71095 0.0029021324 
        52.2    516.79002    740.24445     112.1146 0.0029014594 
        52.4    490.49358    740.24445    112.43993 0.0028987725 
        52.6     505.9213    740.24445    112.90671 0.0028997387 
        52.8    509.92741    740.24445    113.20091  0.002896282 
          53    490.77163    740.24445    113.68965 0.0028978099 
        53.2    513.62409    740.24445    114.07766 0.0028967686 
        53.4    495.10966    740.24445    114.39108 0.0028938483 
        53.6    497.00224    740.24445    114.73542 0.0028917289 
        53.8    490.55579    740.24445    115.13731 0.0028910703 
          54    532.19411    740.24445    115.60284 0.0028920085 
        54.2    485.76494    740.24445    116.03048 0.0028919956 
        54.4    496.77075    740.24445    116.36067  0.002889563 
        54.6     497.6481    740.24445    116.88172 0.0028918702 
        54.8     512.9123    740.24445     117.2751 0.0028910133 
          55    481.75549    740.24445    117.68601 0.0028905932 
        55.2    510.92511    740.24445    118.09029 0.0028900141 
        55.4    508.76295    740.24445    118.47035 0.0028888483 
        55.6    479.58508    740.24445    118.87123  0.002888197 
        55.8    508.40605    740.24445    119.32954 0.0028889405 
          56    498.80303    740.24445    119.82392 0.0028905491 
        56.2    498.39493    740.24445    120.29515 0.0028915896 
        56.4    503.29552    740.24445    120.58245 0.0028882171 
        56.6    517.07172    740.24445    121.03406 0.0028887903 
        56.8    505.06423    740.24445    121.55877  0.002891098 
          57    494.37498    740.24445    122.08418 0.0028934061 
        57.2    517.25791    740.24445    122.59542 0.0028953632 
        57.4    500.13202    740.24445    122.95626 0.0028937672 
        57.6    513.38978    740.24445    123.40918 0.0028943418 
        57.8    480.58078    740.24445    123.81622 0.0028938402 
          58    513.61369    740.24445    124.14769 0.0028915818 
        58.2    500.31051    740.24445    124.54472 0.0028908607 
        58.4    506.75151    740.24445    125.07735 0.0028932814 
        58.6    504.98927    740.24445    125.46174 0.0028922679 
        58.8     516.9304    740.24445    125.82236 0.0028907155 
          59    477.92179    740.24445    126.21128 0.0028898215 
        59.2     503.5456    740.24445    126.67602 0.0028906636 
        59.4    511.80834    740.24445    127.16174  0.002891977 
        59.6    501.80656    740.24445    127.55581 0.0028912045 
        59.8    514.61598    740.24445    127.99059 0.0028913568 
          60    501.13129    740.24445    128.41733 0.0028913271 
        60.2     507.3303    740.24445    128.96649 0.0028940446 
        60.4    502.58115    740.24445    129.32159 0.0028924039 
        60.6    513.81211    740.24445    129.67015 0.0028906282 
        60.8    512.82753    740.24445    130.02143 0.0028889246 
          61    510.53409    740.24445    130.36645 0.0028870934 
        61.2    491.69629    740.24445    130.80666 0.0028873756 
        61.4     517.2565    740.24445    131.19431 0.0028864993 
        61.6    498.91987    740.24445    131.58192 0.0028856281 
        61.8    494.34866    740.24445    132.02948 0.0028860728 
          62    510.43696    740.24445    132.72331 0.0028918807 
        62.2    497.72561    740.24445    133.15581 0.0028919753 
        62.4    493.44764    740.24445    133.58064 0.0028919032 
        62.6    509.83997    740.24445    134.06963 0.0028932165 
        62.8    510.92435    740.24445    134.54683 0.0028942676 
          63    506.63233    740.24445    134.91476 0.0028929689 
        63.2    502.67724    740.24445    135.40341 0.0028942589 
        63.4    502.49978    740.24445    135.74495 0.0028924061 
        63.6    505.15506    740.24445    136.07586 0.0028903392 
        63.8    497.90963    740.24445    136.43564 0.0028888967 
          64    488.21762    740.24445    136.84182 0.0028884424 
        64.2    510.73553    740.24445    137.37514 0.0028906663 
        64.4    481.03442    740.24445    137.67178 0.0028879116 
        64.6    507.82546    740.24445    138.11361 0.0028882102 
        64.8    491.08264    740.24445    138.55538 0.0028885057 
          65    503.55819    740.24445    138.94313 0.0028876767 
        65.2    505.67519    740.24445    139.45546  0.002889434 
        65.4    492.50243    740.24445    139.84723 0.0028886901 
        65.6     508.9644    740.24445    140.21637 0.0028874849 
        65.8    504.05378    740.24445    140.52677 0.0028850809 
          66    504.94121    740.24445    141.00689 0.0028861655 
        66.2    512.24558    740.24445      141.326 0.0028839579 
        66.4    491.80643    740.24445    141.85399 0.0028860133 
        66.6    513.11835    740.24445    142.26943 0.0028857732 
        66.8    504.49758    740.24445    142.68246  0.002885486 
          67     497.8475    740.24445    143.21138  0.002887537 
        67.2    509.40933    740.24445    143.80493 0.0028908752 
        67.4    506.40814    740.24445    144.28407 0.0028919004 
        67.6    488.93683    740.24445    144.61044 0.0028898666 
        67.8    497.10125    740.24445    145.08261 0.0028907498 
          68    508.77661    740.24445    145.71106 0.0028947325 
        68.2    489.13829    740.24445    146.09837 0.0028939155 
        68.4    508.44194    740.24445    146.41733 0.0028917532 
        68.6    501.31644    740.24445    146.77436 0.0028903533 
        68.8    484.74237    740.24445    147.13217 0.0028889767 
          69    503.69726    740.24445    147.72847 0.0028922775 
        69.2    504.93358    740.24445    148.16806 0.0028924998 
        69.4    497.52263    740.24445    148.54484 0.0028914982 
        69.6    493.56242    740.24445    148.89189 0.0028899256 
        69.8    485.60546    740.24445    149.46559 0.0028927483 
          70     504.8424    740.24445    149.88089 0.0028924979 
        70.2    492.83828    740.24445    150.24797 0.0028913211 
        70.4    518.53867    740.24445    150.68369 0.0028914683 
        70.6    491.73457    740.24445     151.1362 0.0028919358 
        70.8    508.08456    740.24445    151.58106 0.0028922546 
          71    499.15927    740.24445    152.18854 0.0028956659 
        71.2    491.59958    740.24445    152.71853 0.0028975876 
        71.4    488.44411    740.24445    153.15636  0.002897755 
        71.6    497.23946    740.24445    153.57405 0.0028975415 
        71.8    486.75233    740.24445    154.07776 0.0028989476 
          72    509.53936    740.24445    154.60269 0.0029007439 
        72.2    500.64253    740.24445    155.01188 0.0029003647 
        72.4      502.515    740.24445    155.46245 0.0029007599 
        72.6    505.22116    740.24445     155.8264  0.002899541 
        72.8    507.34615    740.24445    156.38248 0.0029018941 
          73    500.93655    740.24445    156.96309 0.0029046882 
        73.2     526.2715    740.24445    157.35827  0.002904045 
        73.4    492.92034    740.24445    157.83386  0.002904885 
        73.6    510.45294    740.24445    158.27744 0.0029051332 
        73.8     503.8636    740.24445    158.59689 0.0029031077 
          74    500.90703    740.24445      158.909 0.0029009592 
        74.2    495.12448    740.24445    159.24037  0.002899173 
        74.4     508.5705    740.24445    159.76982 0.0029009928 
        74.6    505.42827    740.24445    160.33575 0.0029034636 
        74.8    506.90869    740.24445    160.76086 0.0029033778 
          75     496.0565    740.24445    161.19849 0.0029035182 
        75.2    497.68617    740.24445    161.58683 0.0029027722 
        75.4    501.41065    740.24445    162.22553 0.0029065158 
        75.6    500.03627    740.24445    162.78267 0.0029087822 
        75.8    487.27424    740.24445     163.1704 0.0029080174 
          76     493.8138    740.24445    163.56317 0.0029073463 
        76.2    498.05959    740.24445    163.95056 0.0029065833 
        76.4    482.11199    740.24445    164.34371 0.0029059261 
        76.6    521.03585    740.24445    164.94761 0.0029089892 
        76.8    501.12148    740.24445    165.47028 0.0029106073 
          77    504.85026    740.24445    165.96042 0.0029116465 
        77.2    502.61499    740.24445    166.41144 0.0029119956 
        77.4    489.86069    740.24445    167.02336 0.0029151512 
        77.6    502.72739    740.24445    167.45113 0.0029150849 
        77.8    507.67346    740.24445    168.02537 0.0029175621 
          78    494.99658    740.24445    168.42438 0.0029169917 
        78.2    522.23809    740.24445    168.83968 0.0029167056 
        78.4     506.8972    740.24445    169.38634 0.0029186845 
        78.6    510.56579    740.24445    169.74429   0.00291741 
        78.8    515.82271    740.24445    170.13878 0.0029167683 
          79     503.4227    740.24445    170.64224 0.0029179933 
        79.2    499.37842    740.24445    170.98334 0.0029164427 
        79.4    515.19092    740.24445    171.38469  0.002915925 
        79.6     493.5321    740.24445    171.77979 0.0029153039 
        79.8    502.14063    740.24445    172.10425 0.0029134901 
          80    500.49873    740.24445    172.61702 0.0029148652 
        80.2    504.32765    740.24445    173.03409 0.0029146214 
        80.4    502.32196    740.24445    173.58126 0.0029165647 
        80.6    501.90096    740.24445    174.04997 0.0029171835 
        80.8    507.56723    740.24445    174.61387 0.0029193907 
          81    499.87146    740.24445    174.95227  0.002917826 
        81.2    493.61076    740.24445    175.36516 0.0029175085 
        81.4    506.18743    740.24445    175.82487 0.0029179694 
        81.6    500.81629    740.24445    176.22504 0.0029174425 
        81.8    504.71204    740.24445     176.7241 0.0029185512 
          82    502.72579    740.24445    177.12336 0.0029180103 
        82.2    503.58216    740.24445    177.51126 0.0029172855 
        82.4    497.47805    740.24445     178.0429 0.0029189207 
        82.6    500.61671    740.24445    178.57914 0.0029206232 
        82.8    504.85579    740.24445    179.06852 0.0029215529 
          83    505.71084    740.24445    179.46436 0.0029209556 
        83.2    475.32385    740.24445    179.80834 0.0029195192 
        83.4    508.61243    740.24445    180.29858 0.0029204589 
        83.6    496.18085    740.24445    180.68606 0.0029197335 
        83.8    498.99228    740.24445    181.25445  0.002921928 
          84    500.61732    740.24445    181.68281   0.00292186 
        84.2    490.62642    740.24445    182.19154 0.0029230817 
        84.4     506.8281    740.24445    182.74322 0.0029249852 
        84.6    508.96727    740.24445    183.10891 0.0029239096 
        84.8    495.68852    740.24445    183.66279 0.0029258373 
          85    521.30671    740.24445    184.01929 0.0029246188 
        85.2    497.20499    740.24445    184.46145 0.0029247642 
        85.4    480.78003    740.24445    184.91978 0.0029251648 
        85.6    494.86146    740.24445    185.32996 0.0029248036 
        85.8    501.52885    740.24445    185.81431 0.0029256119 
          86    501.61888    740.24445    186.21128 0.0029250438 
        86.2    508.81579    740.24445    186.57636 0.0029239787 
        86.4    502.84367    740.24445    187.10985 0.0029255515 
        86.6    514.25189    740.24445    187.46488 0.0029243333 
        86.8    510.23182    740.24445    187.82373 0.0029231801 
          87    504.16269    740.24445     188.3819 0.0029251272 
        87.2    506.66236    740.24445    188.86931 0.0029259692 
        87.4    502.34021    740.24445    189.27251 0.0029255057 
        87.6    508.55059    740.24445    189.87967 0.0029281896 
        87.8    517.22413    740.24445    190.24312 0.0029271117 
          88    500.98741    740.24445    190.67997 0.0029271653 
        88.2    503.29443    740.24445    191.15499 0.0029278033 
        88.4    486.03145    740.24445    191.82722 0.0029314521 
        88.6    503.13646    740.24445    192.14939 0.0029297471 
        88.8    497.42615    740.24445    192.69222 0.0029314065 
          89    503.14129    740.24445     193.0987  0.002930989 
        89.2    490.24467    740.24445    193.57064 0.0029315647 
        89.4    501.93193    740.24445    193.91196 0.0029301639 
        89.6    505.01562    740.24445    194.35169 0.0029302533 
        89.8    478.91047    740.24445    194.70424 0.0029290306 
          90    510.60081    740.24445    195.21525 0.0029301919 
        90.2      505.321    740.24445    195.60514 0.0029295342 
        90.4    497.75055    740.24445    196.05985 0.0029298479 
        90.6    505.33836    740.24445    196.39723 0.0029284108 
        90.8    505.78993    740.24445    196.80047 0.0029279599 
          91    493.43792    740.24445    197.09571 0.0029259076 
        91.2    493.47013    740.24445    197.65436 0.0029277662 
        91.4    504.39083    740.24445     197.9953 0.0029263989 
        91.6    496.14244    740.24445     198.4534 0.0029267653 
        91.8    495.22432    740.24445    198.75276 0.0029247943 
          92    508.51326    740.24445    199.17521 0.0029246392 
        92.2    495.57805    740.24445    199.54003 0.0029236404 
        92.4    499.40409    740.24445    200.02032 0.0029243341 
        92.6    507.57886    740.24445    200.42584  0.002923934 
        92.8    504.97054    740.24445    200.81045 0.0029232312 
          93    495.80916    740.24445    201.28198 0.0029237941 
        93.2    523.00464    740.24445    201.74414 0.0029242187 
        93.4    494.62854    740.24445     202.1151 0.0029233225 
        93.6    506.76592    740.24445    202.59353 0.0029239811 
        93.8    499.77925    740.24445    203.14122 0.0029256344 
          94     501.3041    740.24445    203.66758 0.0029269742 
        94.2    490.89423    740.24445    204.02281 0.0029258541 
        94.4    497.79571    740.24445    204.45877  0.002925894 
        94.6    507.87312    740.24445    204.87588 0.0029256646 
        94.8     491.2598    740.24445    205.38647 0.0029267682 
          95    504.44815    740.24445    205.80259 0.0029265238 
        95.2    497.48091    740.24445    206.16132 0.0029254662 
        95.4    496.27454    740.24445    206.47494 0.0029237741 
        95.6    475.29282    740.24445     206.7821 0.0029219979 
        95.8    502.90078    740.24445     207.2599 0.0029226352 
          96    507.12469    740.24445    207.78603 0.0029239501 
        96.2    476.29885    740.24445    208.07799  0.002921971 
        96.4    515.93049    740.24445     208.4435 0.0029210309 
        96.6     501.1335    740.24445    208.86086 0.0029208199 
        96.8    505.38233    740.24445    209.46561 0.0029232248 
          97    500.94892    740.24445     209.7993 0.0029218448 
        97.2     502.7725    740.24445    210.20994 0.0029215399 
        97.4    503.33951    740.24445     210.6518 0.0029216692 
        97.6    496.99799    740.24445    211.00406 0.0029205579 
        97.8    489.49514    740.24445    211.44113 0.0029206228 
          98    520.02806    740.24445    211.83501 0.0029200918 
        98.2    515.49357    740.24445    212.24719 0.0029198148 
        98.4    490.65957    740.24445    212.82084 0.0029217556 
        98.6    507.77159    740.24445    213.42208 0.0029240667 
        98.8    510.34171    740.24445    213.77203 0.0029229325 
          99    487.12002    740.24445    214.17429 0.0029225166 
        99.2    506.29016    740.24445    214.68711  0.002923608 
        99.4    491.90254    740.24445    215.05618 0.0029227413 
        99.6    508.47972    740.24445    215.43834 0.0029220557 
        99.8    498.25583    740.24445    215.86585 0.0029219867 
         100      503.879    740.24445    216.25747 0.0029214332 
       100.2    493.83148    740.24445    216.73393 0.0029220257 
       100.4    506.22452    740.24445    217.20032 0.0029224802 
       100.6    501.37952    740.24445    217.65006 0.0029227095 
       100.8    499.67419    740.24445    218.09447 0.0029228664 
         101    504.26558    740.24445      218.469 0.0029220879 
       101.2    500.29289    740.24445    218.92315 0.0029223755 
       101.4    495.61755    740.24445    219.25837 0.0029210774 
       101.6     511.4759    740.24445    219.67773 0.0029209031 
       101.8    478.08588    740.24445    220.09818 0.0029207441 
         102     498.4178    740.24445    220.57271 0.0029213019 
       102.2    501.40734    740.24445    221.09613 0.0029225038 
       102.4    502.16098    740.24445    221.48145 0.0029218791 
       102.6    510.46123    740.24445    222.01771 0.0029232442 
       102.8     496.2257    740.24445    222.48798 0.0029237369 
         103    501.68664    740.24445    222.86266 0.0029229739 
       103.2    490.88487    740.24445    223.42913 0.0029247244 
       103.4    498.28704    740.24445    223.85112 0.0029245805 
       103.6    498.82396    740.24445     224.2288 0.0029238593 
       103.8    496.86611    740.24445    224.86985 0.0029265687 
         104    502.55522    740.24445    225.30208  0.002926555 
       104.2    499.78339    740.24445    225.93273  0.002929114 
       104.4    504.89366    740.24445    226.41977 0.0029298048 
       104.6    481.19395    740.24445    226.80552 0.0029291849 
       104.8    511.04385    740.24445    227.27009 0.0029295833 
         105    503.18502    740.24445    227.74306 0.0029300881 
       105.2    503.65105    740.24445     228.3386 0.0029321652 
       105.4      492.877    740.24445    228.66757 0.0029308177 
       105.6    500.72752    740.24445    229.14429 0.0029313654 
       105.8    486.67561    740.24445    229.61717  0.002931862 
         106    502.75471    740.24445    230.03133 0.0029316085 
       106.2    492.64306    740.24445    230.36859 0.0029303776 
       106.4    497.78249    740.24445    230.83019   0.00293073 
       106.6    496.89972    740.24445    231.21768 0.0029301421 
       106.8    508.22666    740.24445    231.56783 0.0029290839 
         107    497.59418    740.24445    231.97748 0.0029287809 
       107.2     499.3566    740.24445    232.43731 0.0029291115 
       107.4    496.96023    740.24445    232.74606 0.0029275404 
       107.6    509.90585    740.24445    233.14417 0.0029270972 
       107.8    505.70005    740.24445    233.59812 0.0029273552 
         108    495.83099    740.24445    234.10066 0.0029282201 
       108.2    495.30846    740.24445    234.51384 0.0029279662 
       108.4    512.42002    740.24445    235.15572 0.0029305633 
       108.6    483.70067    740.24445    235.49017 0.0029293267 
       108.8    516.81593    740.24445    235.91243 0.0029291847 
         109    506.93489    740.24445    236.49575 0.0029310396 
       109.2    506.54589    740.24445    236.91141 0.0029308135 
       109.4     496.9562    740.24445    237.26972   0.00292988 
       109.6    510.36479    740.24445    237.79008 0.0029309474 
       109.8    494.92657    740.24445    238.23924 0.0029311348 
         110     512.3307    740.24445    238.64404 0.0029307768 
       110.2     486.2128    740.24445     239.0184 0.0029300469 
       110.4    508.82995    740.24445    239.63893 0.0029323319 
       110.6    504.06018    740.24445    240.06182 0.0029321947 
       110.8     495.0226    740.24445    240.45592 0.0029317069 
         111    522.38889    740.24445    240.87805  0.002931562 
       111.2    486.25749    740.24445    241.45683 0.0029333207 
       111.4    504.20653    740.24445    242.04996 0.0029352471 
       111.6    501.43734    740.24445    242.50084 0.0029354446 
       111.8    502.09676    740.24445    242.99135 0.0029361203 
         112    516.81901    740.24445    243.42654 0.0029361263 
       112.2    524.89432    740.24445    243.82157 0.0029356488 
       112.4    511.69359    740.24445    244.16987 0.0029346114 
       112.6    503.89581    740.24445     244.6214 0.0029348161 
       112.8    525.02656    740.24445    245.13709 0.0029357886 
         113    515.85697    740.24445     245.5791 0.0029358766 
       113.2    509.90753    740.24445    246.06777 0.0029365212 
       113.4    507.55658    740.24445    246.38097 0.0029350733 
       113.6    491.82459    740.24445    246.87693 0.0029358038 
       113.8     524.3855    740.24445    247.24482 0.0029350113 
         114    495.02521    740.24445    247.53753 0.0029333308 
       114.2    513.30416    740.24445    247.92534 0.0029327811 
       114.4    491.14043    740.24445    248.33312 0.0029324692 
       114.6    493.40667    740.24445    248.74422 0.0029321975 
       114.8    509.23805    740.24445    249.22677 0.0029327676 
         115    500.56396    740.24445     249.6895 0.0029331027 
       115.2    513.75176    740.24445    250.14203 0.0029333172 
       115.4    502.00672    740.24445    250.60249 0.0029336237 
       115.6    507.61546    740.24445    251.00778 0.0029332845 
       115.8    505.11444    740.24445    251.36439 0.0029323785 
         116    481.53155    740.24445    251.71534 0.0029314098 
       116.2    498.79802    740.24445    252.06491 0.0029304283 
       116.4     496.0599    740.24445    252.41246 0.0029294268 
       116.6    490.88171    740.24445    252.86274 0.0029296189 
       116.8     504.8281    740.24445    253.22116 0.0029287479 
         117    492.97569    740.24445    253.65289 0.0029287264 
       117.2    498.05366    740.24445    254.12206 0.0029291364 
       117.4     508.6716    740.24445    254.47686  0.002928229 
       117.6    508.36851    740.24445    254.86634 0.0029277231 
       117.8    499.96111    740.24445    255.39903 0.0029288612 
         118    500.49877    740.24445    255.84511 0.0029290039 
       118.2     493.8781    740.24445     256.2718 0.0029289245 
       118.4    492.81736    740.24445    256.62458 0.0029280022 
       118.6     505.7381    740.24445    256.93143 0.0029265597 
       118.8    493.72826    740.24445    257.37709 0.0029267005 
         119    510.58777    740.24445    257.75354 0.0029260552 
       119.2    503.13185    740.24445    258.40291 0.0029285051 
       119.4    501.95944    740.24445    258.86158 0.0029287891 
       119.6    515.82284    740.24445    259.22071  0.002927948 
       119.8    503.21353    740.24445    259.63859 0.0029277721 
         120    519.43434    740.24445    260.02121 0.0029271998 
       120.2    506.41096    740.24445    260.54246 0.0029281875 
       120.4    499.52227    740.24445    260.88033 0.0029271143 
       120.6    503.94708    740.24445    261.28557 0.0029267994 
       120.8    500.56634    740.24445    261.61963 0.0029256895 
         121    518.54479    740.24445    262.01448 0.0029252619 
       121.2    492.49849    740.24445    262.36131 0.0029243006 
       121.4    509.03144    740.24445    262.80672 0.0029244394 
       121.6    504.45686    740.24445     263.2229 0.0029242529 
       121.8    490.23609    740.24445    263.56369  0.002923231 
         122    501.69063    740.24445    264.09978 0.0029243749 
       122.2     494.8747    740.24445    264.45272 0.0029234904 
       122.4    495.91702    740.24445    264.93474 0.0029240335 
       122.6    515.78536    740.24445     265.4683 0.0029251425 
       122.8    482.13988    740.24445    265.83367 0.0029243979 
         123    485.02959    740.24445    266.40939 0.0029259659 
       123.2     499.0432    740.24445    266.81807 0.0029256971 
       123.4    505.04536    740.24445    267.19823 0.0029251171 
       123.6     485.2053    740.24445    267.59591 0.0029247304 
       123.8    502.50588    740.24445    268.03573 0.0029248048 
         124    514.43493    740.24445    268.44393 0.0029245344 
       124.2    503.77658    740.24445    268.78889 0.0029235771 
       124.4    498.03134    740.24445    269.24077  0.002923784 
       124.6    503.88144    740.24445    269.68177 0.0029238722 
       124.8    517.02101    740.24445    270.09623 0.0029236729 
         125    502.23153    740.24445    270.56256 0.0029240347 
       125.2    502.84062    740.24445    270.93816 0.0029234165 
       125.4    503.87919    740.24445     271.4104 0.0029238412 
       125.6    495.68145    740.24445    271.86574 0.0029240829 
       125.8    510.20502    740.24445    272.47536 0.0029259806 
         126    509.76698    740.24445    272.81229 0.0029249485 
       126.2    504.16479    740.24445    273.27821 0.0029253006 
       126.4     501.2386    740.24445    273.71076 0.0029252948 
       126.6    506.93103    740.24445    274.27696 0.0029267152 
       126.8    492.88059    740.24445    274.66739 0.0029262585 
         127    502.37248    740.24445    275.13883 0.0029266649 
       127.2    495.90827    740.24445    275.63158 0.0029272964 
       127.4    498.59836    740.24445    276.05284 0.0029271679 
       127.6    499.51931    740.24445    276.44598 0.0029267421 
       127.8    511.34926    740.24445    276.86219 0.0029265614 
         128    480.33533    740.24445    277.20463 0.0029256027 
       128.2    503.48292    740.24445    277.66962 0.0029259384 
       128.4    494.70395    740.24445    278.06335 0.0029255234 
       128.6    496.30188    740.24445    278.37533 0.0029242508 
       128.8    506.90615    740.24445    278.81229 0.0029242931 
         129    486.23988    740.24445    279.34132 0.0029252994 
       129.2    503.07178    740.24445    279.81576 0.0029257317 
       129.4    502.84536    740.24445    280.34452 0.0029267299 
       129.6    497.27653    740.24445    280.68912 0.0029258053 
       129.8    506.28739    740.24445    281.07974 0.0029253625 
         130    510.46275    740.24445    281.49593 0.0029251868 
       130.2    488.58317    740.24445    281.85428 0.0029244115 
       130.4    515.04294    740.24445    282.44952 0.0029260928 
       130.6    515.08826    740.24445    282.92453 0.0029265252 
       130.8    488.22787    740.24445    283.29033 0.0029258283 
         131    511.83497    740.24445    283.69532 0.0029255379 
       131.2    522.63846    740.24445    284.11881 0.0029254386 
       131.4     491.4311    740.24445    284.53127 0.0029252264 
       131.6    500.02213    740.24445    285.18257 0.0029274665 
       131.8    507.05655    740.24445     285.5371  0.002926658 
         132    498.54061    740.24445    285.83789 0.0029253019 
       132.2    510.14818    740.24445    286.19352 0.0029245105 
       132.4    501.47119    740.24445    286.54098  0.002923638 
       132.6    492.11683    740.24445    286.89047 0.0029227888 
       132.8    514.99486    740.24445    287.26724 0.0029222197 
         133    510.34748    740.24445    287.65634 0.0029217775 
       133.2     498.9499    740.24445    288.08858 0.0029217742 
       133.4    512.47613    740.24445     288.7532 0.0029241242 
       133.6    503.09244    740.24445    289.12049 0.0029234606 
       133.8    513.81899    740.24445    289.60875 0.0029240204 
         134    501.94046    740.24445    289.93709 0.0029229664 
       134.2    492.03839    740.24445    290.31023 0.0029223664 
       134.4    522.78786    740.24445    290.82103 0.0029231519 
       134.6    497.34168    740.24445     291.2839  0.002923454 
       134.8    500.85288    740.24445    291.62362  0.002922521 
         135    488.79635    740.24445    292.20013 0.0029239603 
       135.2    514.42125    740.24445    292.61654 0.0029237957 
       135.4    500.98661    740.24445    293.11799   0.00292448 
       135.6     490.4319    740.24445    293.45901 0.0029235639 
       135.8    493.75734    740.24445    293.86057 0.0029232529 
         136    490.04609    740.24445    294.16048  0.002921933 
       136.2    493.91795    740.24445    294.61404  0.002922141 
       136.4    498.81314    740.24445    295.03117 0.0029219876 
       136.6    504.20921    740.24445     295.4482 0.0029218337 
       136.8    480.64785    740.24445    295.94733 0.0029224909 
         137    506.87943    740.24445    296.24576 0.0029211672 
       137.2    509.73509    740.24445    296.69143 0.0029212971 
       137.4    478.98322    740.24445    297.15423 0.0029215951 
       137.6    498.31871    740.24445    297.81253 0.0029238115 
       137.8    496.48383    740.24445    298.16385  0.002923012 
         138    505.36186    740.24445    298.60311 0.0029230758 
       138.2    498.92143    740.24445     299.1864 0.0029245472 
       138.4    509.08435    740.24445    299.59692 0.0029243281 
       138.6    495.78335    740.24445    300.05353 0.0029245587 
       138.8    493.79355    740.24445    300.50058 0.0029246957 
         139    506.00747    740.24445    300.76734 0.0029230801 
       139.2    487.03391    740.24445    301.22293 0.0029233017 
       139.4    510.81914    740.24445    301.72911 0.0029240128 
       139.6    519.25361    740.24445     302.0413 0.0029228448 
       139.8    503.31115    740.24445    302.41241 0.0029222494 
         140    515.34283    740.24445    302.80272 0.0029218409 
       140.2    490.63501    740.24445    303.15243 0.0029210425 
       140.4    514.87932    740.24445    303.48808 0.0029201111 
       140.6    512.45995    740.24445    303.87072 0.0029196338 
       140.8    499.60039    740.24445    304.27289 0.0029193452 
         141    494.73996    740.24445    304.70696  0.002919363 
       141.2    502.55309    740.24445    305.06213  0.002918626 
       141.4    487.02886    740.24445    305.34857 0.0029172343 
       141.6     489.2636    740.24445    305.79214 0.0029173458 
       141.8    502.80035    740.24445    306.22931 0.0029173959 
         142    492.07475    740.24445    306.68238 0.0029175971 
       142.2    499.72786    740.24445    307.08734 0.0029173407 
       142.4    481.29436    740.24445    307.50781 0.0029172322 
       142.6    512.33504    740.24445    307.88391 0.0029167036 
       142.8    514.80293    740.24445    308.29083 0.0029164682 
         143    495.80828    740.24445    308.85718 0.0029177394 
       143.2    491.82867    740.24445    309.18294 0.0029167375 
       143.4    490.78911    740.24445    309.54172 0.0029160494 
       143.6    488.66415    740.24445    309.95077 0.0029158361 
       143.8    503.57408    740.24445    310.50047 0.0029169448 
         144    505.74761    740.24445    310.86492 0.0029163126 
       144.2    498.26074    740.24445     311.3214 0.0029165441 
       144.4    494.48107    740.24445    311.77538 0.0029167518 
       144.6    507.25737    740.24445    312.17911 0.0029164892 
       144.8    517.31282    740.24445    312.48906 0.0029153527 
         145    492.50096    740.24445    312.98196 0.0029159236 
       145.2    516.76418    740.24445    313.46752 0.0029164247 
       145.4    529.62755    740.24445    314.16989 0.0029189388 
       145.6     493.4136    740.24445    314.54449 0.0029184049 
       145.8     497.5835    740.24445    314.86096 0.0029173338 
         146    507.17463    740.24445    315.23716 0.0029168184 
       146.2    517.25682    740.24445    315.73072 0.0029173888 
       146.4    499.38743    740.24445    316.11324 0.0029169329 
       146.6    518.13664    740.24445    316.61138 0.0029175438 
       146.8    497.86072    740.24445    317.08198 0.0029178996 
         147    502.30218    740.24445     317.5761 0.0029184706 
       147.2    517.71918    740.24445    318.15063 0.0029197779 
       147.4    502.44829    740.24445    318.55925 0.0029195612 
       147.6    508.73336    740.24445    318.93885 0.0029190794 
       147.8    497.68362    740.24445    319.34876  0.002918876 
         148    509.04664    740.24445    319.79209 0.0029189781 
       148.2    500.15992    740.24445    320.30175 0.0029196847 
       148.4    489.61317    740.24445    320.70262 0.0029193989 
       148.6    519.38981    740.24445    321.08393 0.0029189362 
       148.8    489.20761    740.24445    321.45683 0.0029183983 
         149    506.27786    740.24445    321.87723 0.0029182926 
       149.2    484.42024    740.24445    322.36703 0.0029188154 
       149.4    488.79752    740.24445    322.70572 0.0029179705 
       149.6    493.84146    740.24445    323.20291 0.0029185592 
       149.8    507.26058    740.24445    323.63547 0.0029185635 
         150    489.33078    740.24445     324.0457 0.0029183666 
       150.2    496.43782    740.24445    324.45139 0.0029181294 
       150.4    489.82482    740.24445    324.89731 0.0029182542 
       150.6    499.56559    740.24445    325.28447 0.0029178516 
       150.8    495.42519    740.24445    325.58707 0.0029166925 
         151    491.57825    740.24445    326.00206  0.002916542 
       151.2    500.62884    740.24445    326.51651 0.0029172806 
       151.4    503.06808    740.24445    326.87779 0.0029166504 
       151.6    520.16549    740.24445    327.32326 0.0029167722 
       151.8    499.48806    740.24445    327.72579 0.0029165115 
         152    525.35629    740.24445    328.08968  0.002915908 
       152.2    503.87688    740.24445    328.50905 0.0029157986 
       152.4    521.16058    740.24445    328.91711 0.0029155892 
       152.6    510.18976    740.24445    329.31473  0.002915288 
       152.8     514.8901    740.24445     329.7766 0.0029155556 
         153    519.91015    740.24445    330.27183 0.0029161169 
       153.2    515.48142    740.24445     330.5553 0.0029148096 
       153.4    501.56403    740.24445    330.99624 0.0029148925 
       153.6    507.88771    740.24445    331.37689 0.0029144449 
       153.8    506.04907    740.24445    331.86285 0.0029149233 
         154    495.52597    740.24445    332.28577 0.0029148477 
       154.2    513.42965    740.24445    332.77587 0.0029153607 
       154.4    488.77296    740.24445    333.25265 0.0029157559 
       154.6    480.94116    740.24445    333.57998 0.0029148441 
       154.8    499.94975    740.24445      334.051 0.0029151887 
         155    477.64357    740.24445    334.33314 0.0029138861 
       155.2    507.43496    740.24445    334.73066 0.0029135912 
       155.4    522.27864    740.24445    335.20414 0.0029139574 
       155.6    500.10044    740.24445    335.75669 0.0029150092 
       155.8    493.53526    740.24445    336.06188 0.0029139133 
         156    499.32783    740.24445    336.43952 0.0029134479 
       156.2    494.24553    740.24445    336.74559 0.0029123645 
       156.4    510.77024    740.24445    337.18583 0.0029124428 
       156.6    507.18536    740.24445    337.48781 0.0029113282 
       156.8    485.45349    740.24445    337.92774  0.002911405 
         157    506.20423    740.24445    338.51264  0.002912729 
       157.2    496.60658    740.24445    338.98068 0.0029130453 
       157.4    494.12373    740.24445     339.2779 0.0029118948 
       157.6    516.78591    740.24445    339.68171 0.0029116609 
       157.8    488.10973    740.24445    340.13769 0.0029118741 
         158    513.01326    740.24445    340.46991 0.0029110287 
       158.2    496.34761    740.24445    341.12717  0.002912961 
       158.4    513.33649    740.24445    341.62684 0.0029135445 
       158.6    510.22128    740.24445    341.97868 0.0029128672 
       158.8    512.91707    740.24445     342.4613 0.0029133042 
         159    502.96488    740.24445    342.88804 0.0029132654 
       159.2    510.88326    740.24445    343.28291 0.0029129562 
       159.4    502.53433    740.24445    343.90777  0.002914597 
       159.6    510.09278    740.24445    344.37751 0.0029149206 
       159.8    523.26574    740.24445    344.93173 0.0029159576 
         160    498.58839    740.24445    345.42006 0.0029164358 
       160.2    501.75605    740.24445    345.85094 0.0029164282 
       160.4    519.85877    740.24445    346.25231 0.0029161721 
       160.6    485.18386    740.24445    346.73651 0.0029166135 
       160.8    503.08601    740.24445    347.18987 0.0029167946 
         161    502.33298    740.24445    347.49083 0.0029156965 
       161.2     486.7254    740.24445    347.97768  0.002916159 
       161.4    493.99485    740.24445      348.368 0.0029158123 
       161.6    489.59947    740.24445    348.73264 0.0029152519 
       161.8    513.07462    740.24445     349.1315 0.0029149785 
         162     495.7662    740.24445    349.63953 0.0029156162 
       162.2    484.43494    740.24445    350.02868 0.0029152622 
       162.4    498.16943    740.24445    350.30309 0.0029139546 
       162.6    495.23863    740.24445    350.73424 0.0029139525 
       162.8    503.87016    740.24445     351.1319 0.0029136724 
         163    507.87217    740.24445    351.56037 0.0029136485 
       163.2    492.33881    740.24445    351.98825 0.0029136196 
       163.4    497.26925    740.24445    352.42424 0.0029136579 
       163.6    497.76586    740.24445    352.73403  0.002912654 
       163.8     490.2079    740.24445    353.14814 0.0029125129 
         164    499.26821    740.24445    353.54903 0.0029122634 
       164.2     508.8148    740.24445    353.97552 0.0029122249 
       164.4    513.14302    740.24445     354.4509 0.0029125884 
       164.6    492.04542    740.24445    354.80989 0.0029119956 
       164.8    507.94687    740.24445    355.23963 0.0029119843 
         165    502.78317    740.24445    355.68623 0.0029121112 
       165.2    498.43165    740.24445    356.30348 0.0029136331 
       165.4    496.14093    740.24445    356.67293 0.0029131274 
       165.6    508.18276    740.24445     357.2076 0.0029139708 
       165.8    500.74175    740.24445    357.61476 0.0029137733 
         166    511.31626    740.24445    358.24773 0.0029154138 
       166.2    534.16047    740.24445    358.67856 0.0029154073 
       166.4    494.25052    740.24445    359.15329 0.0029157573 
       166.6    506.04016    740.24445    359.56534 0.0029155981 
       166.8    487.21922    740.24445    359.95011 0.0029152184 
         167     517.6206    740.24445    360.46923 0.0029159264 
       167.2      501.289    740.24445    360.85795 0.0029155792 
       167.4     495.8856    740.24445    361.31646  0.002915796 
       167.6     510.5049    740.24445    361.62486 0.0029148023 
       167.8    500.80043    740.24445    361.93534 0.0029138278 
         168    508.29199    740.24445    362.40111 0.0029141042 
       168.2     497.3834    740.24445    362.68054 0.0029128834 
       168.4    507.14775    740.24445    363.07957 0.0029126249 
       168.6    502.38377    740.24445    363.45145 0.0029121496 
       168.8    509.88835    740.24445    363.93579 0.0029125753 
         169    482.73062    740.24445    364.39589 0.0029128063 
       169.2    493.99666    740.24445    364.81375 0.0029126995 
       169.4    485.80013    740.24445    365.18602 0.0029122294 
       169.6    505.58061    740.24445    365.51268 0.0029113971 
       169.8    491.54485    740.24445    366.00711 0.0029119015 
         170    485.71358    740.24445    366.37296  0.002911383 
       170.2    502.53134    740.24445    366.83577 0.0029116352 
       170.4    505.15364    740.24445    367.28668 0.0029117925 
       170.6    501.14683    740.24445    367.86709  0.002912975 
       170.8    512.71507    740.24445    368.23661 0.0029124866 
         171     502.0275    740.24445    368.66918 0.0029124975 
       171.2    502.83759    740.24445      369.059 0.0029121711 
       171.4    502.26459    740.24445    369.48943 0.0029121654 
       171.6    523.63593    740.24445    369.95775 0.0029124581 
       171.8    504.60611    740.24445    370.37373 0.0029123385 
         172    514.76598    740.24445    370.72456 0.0029117076 
       172.2    502.68893    740.24445    371.27749 0.0029126635 
       172.4    505.28112    740.24445    371.62359 0.0029119965 
       172.6     512.2018    740.24445    372.01264 0.0029116673 
       172.8    508.15478    740.24445    372.57235 0.0029126729 
         173     511.0739    740.24445    372.94755 0.0029122355 
       173.2    500.68488    740.24445    373.40877   0.00291247 
       173.4    484.64726    740.24445    373.74052 0.0029116953 
       173.6    487.18585    740.24445    374.29692 0.0029126706 
       173.8    484.61407    740.24445    374.79062 0.0029131562 
         174    511.41632    740.24445    375.17282 0.0029127751 
       174.2    490.89937    740.24445    375.60768 0.0029128032 
       174.4    518.38328    740.24445    376.01288 0.0029126016 
       174.6     496.4677    740.24445    376.40806 0.0029123228 
       174.8    508.88695    740.24445    376.86011 0.0029124842 
         175    492.26377    740.24445    377.28981 0.0029124727 
       175.2    487.81263    740.24445    377.74876 0.0029126868 
       175.4    502.10377    740.24445    378.05024 0.0029116876 
       175.6    503.03119    740.24445    378.44084 0.0029113762 
       175.8    497.10114    740.24445    378.68725 0.0029099575 
         176    491.02538    740.24445    379.13231 0.0029100669 
       176.2    510.35307    740.24445    379.59339 0.0029102987 
       176.4    490.93475    740.24445    379.95281 0.0029097517 
       176.6     501.7302    740.24445    380.47179 0.0029104263 
       176.8    506.43999    740.24445    380.81568 0.0029097615 
         177    478.46277    740.24445    381.13324 0.0029088973 
       177.2    500.22417    740.24445    381.54732  0.002908771 
       177.4    501.12439    740.24445    382.10027 0.0029097024 
       177.6    496.79319    740.24445    382.56581 0.0029099668 
       177.8    496.13512    740.24445     383.0077 0.0029100509 
         178    500.11849    740.24445    383.37145 0.0029095418 
       178.2    489.03822    740.24445    383.98699 0.0029109427 
       178.4      508.167    740.24445    384.49698 0.0029115411 
       178.6    502.37349    740.24445    384.80996  0.002910648 
       178.8    493.89567    740.24445    385.11654 0.0029097086 
         179    523.33861    740.24445     385.5855 0.0029099967 
       179.2    506.78558    740.24445    385.88097 0.0029089764 
       179.4    510.55303    740.24445    386.26457 0.0029086219 
       179.6    511.07152    740.24445    386.62066 0.0029080614 
       179.8    490.83768    740.24445    386.92302 0.0029070984 
         180    494.92229    740.24445     387.3756 0.0029072648 
       180.2    501.43114    740.24445    387.83014 0.0029074457 
       180.4    495.07591    740.24445    388.34778 0.0029080986 
       180.6    513.17163    740.24445    388.74832 0.0029078742 
       180.8    508.85651    740.24445     389.1859 0.0029079271 
         181    486.76418    740.24445    389.66842 0.0029083152 
       181.2    498.26485    740.24445    390.33194 0.0029100519 
       181.4    481.01092    740.24445    390.64614 0.0029091834 
       181.6    498.45306    740.24445    391.19642 0.0029100729 
       181.8    491.02976    740.24445    391.50378 0.0029091554 
         182    521.40485    740.24445    391.85763  0.002908585 
       182.2     494.5347    740.24445     392.2373 0.0029082073 
       182.4    501.63072    740.24445    392.67911 0.0029082907 
       182.6    505.93145    740.24445    393.09217 0.0029081611 
       182.8    498.44775    740.24445    393.56769 0.0029084934 
         183    507.65481    740.24445    393.95248 0.0029081552 
       183.2    501.34946    740.24445    394.34716 0.0029078907 
       183.4    502.81209    740.24445      394.813  0.002908151 
       183.6    501.82115    740.24445    395.14827   0.00290745 
       183.8    505.86516    740.24445    395.57213 0.0029074015 
         184    501.57558    740.24445     395.9936 0.0029073357 
       184.2    518.72445    740.24445    396.54102 0.0029081937 
       184.4    494.45916    740.24445    397.23013 0.0029100879 
       184.6    514.53564    740.24445    397.79726 0.0029110853 
       184.8      504.559    740.24445    398.20604  0.002910923 
         185    496.24406    740.24445    398.56195  0.002910375 
       185.2    505.43528    740.24445    398.96093 0.0029101423 
       185.4    498.16448    740.24445    399.42492 0.0029103838 
       185.6     503.2878    740.24445    399.90068 0.0029107105 
       185.8    484.83174    740.24445    400.39395 0.0029111638 
         186    515.48092    740.24445    400.76734 0.0029107454 
       186.2    499.34992    740.24445    401.21606 0.0029108744 
       186.4    498.12684    740.24445    401.63778 0.0029108075 
       186.6    499.20883    740.24445    402.08007 0.0029108897 
       186.8    498.65628    740.24445    402.49466 0.0029107713 
         187    505.19726    740.24445    402.95076 0.0029109531 
       187.2    505.34311    740.24445    403.66907 0.0029130267 
       187.4    480.76557    740.24445    404.08275 0.0029128999 
       187.6    493.43206    740.24445    404.31457 0.0029114638 
       187.8    485.34889    740.24445    404.73201  0.002911366 
         188    488.16217    740.24445    405.18138 0.0029114978 
       188.2    496.12311    740.24445    405.54367 0.0029110043 
       188.4     496.2645    740.24445    405.90418 0.0029104991 
       188.6    503.76325    740.24445    406.29981 0.0029102465 
       188.8    504.49515    740.24445    406.70932 0.0029100937 
         189    497.19981    740.24445     407.0291 0.0029092999 
       189.2    492.44542    740.24445     407.4937 0.0029095419 
       189.4    499.50846    740.24445    407.80501 0.0029086899 
       189.6    511.55582    740.24445    408.16222 0.0029081668 
       189.8     491.3235    740.24445    408.62824 0.0029084193 
         190    499.60658    740.24445    409.01503 0.0029081078 
       190.2    504.82722    740.24445    409.54025 0.0029087803 
       190.4     513.6623    740.24445    410.14322 0.0029100029 
       190.6     505.7385    740.24445    410.57787 0.0029100301 
       190.8    495.17347    740.24445    410.97873 0.0029098179 
         191    496.46993    740.24445    411.34306 0.0029093479 
       191.2    508.49955    740.24445    411.68105 0.0029086926 
       191.4    504.59015    740.24445    412.13419 0.0029088515 
       191.6    509.08971    740.24445    412.51691 0.0029085135 
       191.8    501.78524    740.24445    412.77401 0.0029072915 
         192    500.05423    740.24445    413.20775 0.0029073149 
       192.2    509.39211    740.24445    413.76308 0.0029081928 
       192.4    489.91984    740.24445    414.22956 0.0029084451 
       192.6     514.6926    740.24445    414.67941 0.0029085801 
       192.8    498.45339    740.24445    415.11171 0.0029085919 
         193    492.94197    740.24445    415.46596 0.0029080574 
       193.2    520.06838    740.24445    415.87272 0.0029078912 
       193.4    516.27262    740.24445    416.29028 0.0029078007 
       193.6    498.68868    740.24445    416.81783 0.0029084779 
       193.8    512.20762    740.24445    417.46543 0.0029099906 
         194    516.34752    740.24445    418.04159 0.0029110026 
       194.2    485.01287    740.24445    418.47313 0.0029110066 
       194.4     509.0172    740.24445    418.86885 0.0029107616 
       194.6    484.69093    740.24445    419.20534  0.002910106 
       194.8    498.36133    740.24445    419.62144 0.0029100038 
         195    497.61656    740.24445    419.93259 0.0029091747 
       195.2    506.21122    740.24445    420.36045 0.0029091551 
       195.4    490.21662    740.24445    420.70494 0.0029085591 
       195.6    482.14691    740.24445    421.04056  0.002907903 
       195.8    482.67619    740.24445    421.35704 0.0029071163 
         196    496.50882    740.24445    421.82369 0.0029073662 
       196.2    492.56706    740.24445    422.17432 0.0029068167 
       196.4    493.83073    740.24445    422.76171 0.0029078969 
       196.6    501.76388    740.24445    423.10257 0.0029072809 
       196.8    516.52086    740.24445    423.62552 0.0029079161 
         197    509.40554    740.24445    424.10775 0.0029082706 
       197.2    488.22832    740.24445    424.49117 0.0029079477 
       197.4    502.09484    740.24445    424.86377 0.0029075513 
       197.6     498.3866    740.24445    425.22086 0.0029070497 
       197.8     496.5999    740.24445    425.72014 0.0029075202 
         198    511.16128    740.24445    426.06839 0.0029069594 
       198.2    508.34988    740.24445    426.41887 0.0029064149 
       198.4    492.64095    740.24445    426.89189 0.0029067058 
       198.6     500.0612    740.24445    427.38861 0.0029071574 
       198.8    499.79711    740.24445    427.80102 0.0029070351 
         199    488.31807    740.24445    428.15293 0.0029065024 
       199.2      501.617    740.24445    428.56047  0.002906348 
       199.4    502.02206    740.24445    429.08974 0.0029070186 
       199.6    494.39946    740.24445    429.46253 0.0029066289 
       199.8    504.24117    740.24445    429.84244  0.002906288 
         200    500.81416    740.24445    430.28371 0.0029063623 
       200.2    495.79583    740.24445    430.88358 0.0029075066 
       200.4    502.52871    740.24445    431.24089 0.0029070135 
       200.6    510.00799    740.24445    431.72734 0.0029073911 
       200.8    503.10387    740.24445    432.11342 0.0029070927 
         201    492.25404    740.24445    432.50036 0.0029068007 
       201.2    496.06847    740.24445       432.88 0.0029064603 
       201.4    509.57289    740.24445    433.38457 0.0029069584 
       201.6    491.22217    740.24445    433.71696 0.0029063018 
       201.8     508.2399    740.24445    434.28827  0.002907246 
         202    509.20921    740.24445    434.69893 0.0029071139 
       202.2    488.46067    740.24445    435.07296 0.0029067373 
       202.4     509.5295    740.24445      435.403 0.0029060679 
       202.6    494.03437    740.24445    435.85439 0.0029062089 
       202.8     501.2902    740.24445     436.4319 0.0029071897 
         203     499.8398    740.24445    436.82815 0.0029069625 
       203.2    505.33895    740.24445    437.21135 0.0029066488 
       203.4    508.07037    740.24445    437.77181 0.0029075131 
       203.6     495.5953    740.24445    438.19562 0.0029074691 
       203.8    506.43126    740.24445    438.50737 0.0029066822 
         204    508.34717    740.24445     439.0575 0.0029074756 
       204.2    498.37278    740.24445    439.61975 0.0029083475 
       204.4    496.52288    740.24445    440.14585 0.0029089788 
       204.6     503.2616    740.24445    440.47736 0.0029083241 
       204.8     511.8096    740.24445    440.80886 0.0029076706 
         205    486.05359    740.24445    441.51937  0.002909516 
       205.2    508.49919    740.24445    441.91748 0.0029093011 
       205.4    505.25274    740.24445    442.26936 0.0029087825 
       205.6    489.63531    740.24445    442.78357 0.0029093316 
       205.8    508.36461    740.24445    443.18528 0.0029091411 
         206    492.23365    740.24445    443.54437 0.0029086716 
       206.2    498.54706    740.24445    443.89011 0.0029081155 
       206.4    518.17953    740.24445    444.35352 0.0029083306 
       206.6     492.1206    740.24445    444.71054 0.0029078497 
       206.8    512.71921    740.24445    445.10526 0.0029076159 
         207    506.33796    740.24445    445.50652 0.0029074253 
       207.2    502.56675    740.24445    446.06317 0.0029082481 
       207.4    508.92717    740.24445    446.53267 0.0029085017 
       207.6    507.23483    740.24445    446.91468 0.0029081855 
       207.8    502.08722    740.24445    447.42317 0.0029086922 
         208    517.66327    740.24445    447.86221 0.0029087469 
       208.2    503.89609    740.24445    448.36161  0.002909193 
       208.4     503.2461    740.24445    448.80248 0.0029092589 
       208.6    496.71058    740.24445    449.13723 0.0029086374 
       208.8    498.67743    740.24445    449.49523 0.0029081676 
         209    503.66721    740.24445     449.9639  0.002908414 
       209.2    502.72432    740.24445    450.35562  0.002908163 
       209.4    494.00918    740.24445    450.64635  0.002907261 
       209.6    499.97404    740.24445    451.12049 0.0029075428 
       209.8    503.62635    740.24445    451.55888 0.0029075939 
         210    498.55066    740.24445     451.9314 0.0029072211 
       210.2    514.91828    740.24445    452.34601 0.0029071195 
       210.4    490.20686    740.24445    452.96154 0.0029083082 
       210.6    514.73258    740.24445    453.39012 0.0029082955 
       210.8    502.28846    740.24445    453.83966  0.002908417 
         211    504.08829    740.24445    454.21369 0.0029080549 
       211.2    519.89512    740.24445    454.60201 0.0029077849 
       211.4    499.55284    740.24445    455.00874  0.002907633 
       211.6    515.95854    740.24445    455.35925 0.0029071226 
       211.8     488.5377    740.24445    455.77883 0.0029070536 
         212    520.74067    740.24445    456.13586 0.0029065861 
       212.2    504.37102    740.24445    456.56324 0.0029065674 
       212.4    503.18682    740.24445    457.02668 0.0029067781 
       212.6    502.90498    740.24445    457.49298 0.0029070065 
       212.8    502.86984    740.24445    457.84476 0.0029065076 
         213    501.69366    740.24445    458.58761 0.0029084899 
       213.2    506.40849    740.24445    459.00519 0.0029084074 
       213.4    499.55562    740.24445    459.41255 0.0029082604 
       213.6    501.79342    740.24445    459.78234  0.002907876 
       213.8    488.74268    740.24445     460.2867 0.0029083426 
         214    513.55987    740.24445    460.81106 0.0029089346 
       214.2    506.87068    740.24445     461.3335 0.0029095134 
       214.4    496.43629    740.24445    461.75284 0.0029094415 
       214.6    506.03731    740.24445    462.30338 0.0029101957 
       214.8     504.3637    740.24445    462.63607 0.0029095783 
         215    500.24982    740.24445    463.08311 0.0029096806 
       215.2     485.7253    740.24445    463.65377 0.0029105587 
       215.4     514.7068    740.24445    464.19716 0.0029112642 
       215.6    487.04526    740.24445    464.59094 0.0029110309 
       215.8    510.69608    740.24445    465.02778 0.0029110676 
         216    497.57024    740.24445    465.58521 0.0029118585 
       216.2    488.63976    740.24445    466.09359 0.0029123414 
       216.4    513.61025    740.24445    466.52362 0.0029123342 
       216.6     512.5227    740.24445    466.88454 0.0029118961 
       216.8    486.48699    740.24445     467.3513 0.0029121183 
         217    516.92414    740.24445    467.76099 0.0029119848 
       217.2    502.15796    740.24445    468.22577 0.0029121942 
       217.4    501.30922    740.24445    468.59922 0.0029118357 
       217.6    502.31107    740.24445     469.1487 0.0029125706 
       217.8    524.19722    740.24445    469.59742 0.0029126793 
         218    495.10811    740.24445    469.99721 0.0029124845 
       218.2     500.2817    740.24445    470.48779 0.0029128522 
       218.4    521.26812    740.24445    470.96239 0.0029131204 
       218.6    503.45808    740.24445    471.33509 0.0029127584 
       218.8    501.33467    740.24445    471.86645 0.0029133765 
         219    493.64611    740.24445    472.27938 0.0029132631 
       219.2    500.76994    740.24445     472.7146 0.0029132872 
       219.4    493.82604    740.24445    473.12287 0.0029131454 
       219.6    503.89064    740.24445    473.54147 0.0029130673 
       219.8    496.55534    740.24445    473.89216 0.0029125721 
         220    492.70096    740.24445    474.34681  0.002912716 
       220.2    502.88856    740.24445    474.81819 0.0029129624 
       220.4    506.80772    740.24445    475.20146 0.0029126682 
       220.6    498.36531    740.24445    475.70923  0.002913137 
       220.8    497.41609    740.24445    476.11087 0.0029129556 
         221    509.34226    740.24445    476.51669 0.0029128001 
       221.2    503.32667    740.24445    476.85992 0.0029122626 
       221.4    502.83389    740.24445    477.18856 0.0029116371 
       221.6    494.66341    740.24445     477.6431 0.0029117802 
       221.8    494.67416    740.24445    478.00002 0.0029113285 
         222    496.20584    740.24445     478.3683 0.0029109467 
       222.2    502.10264    740.24445    478.66891 0.0029101542 
       222.4    493.88395    740.24445    479.02752 0.0029097155 
       222.6    503.21087    740.24445    479.41108 0.0029094289 
       222.8     484.2875    740.24445    479.91386 0.0029098657 
         223    518.36368    740.24445    480.39262 0.0029101562 
       223.2    515.19099    740.24445    480.86781 0.0029104246 
       223.4    498.10472    740.24445     481.4408 0.0029112839 
       223.6    517.07609    740.24445    481.71153 0.0029103156 
       223.8    491.36237    740.24445    482.27226 0.0029110994 
         224    493.47161    740.24445    482.71537 0.0029111726 
       224.2    496.94139    740.24445    483.09507 0.0029108635 
       224.4    498.27276    740.24445    483.48137 0.0029105947 
       224.6    510.97918    740.24445    483.91035 0.0029105831 
       224.8    506.85346    740.24445    484.51246 0.0029116119 
         225    493.56783    740.24445     484.9317 0.0029115409 
       225.2     503.9226    740.24445    485.25897 0.0029109183 
       225.4    488.14224    740.24445    485.63938 0.0029106154 
       225.6    501.67679    740.24445    486.39022 0.0029125312 
       225.8    510.19424    740.24445     486.7273 0.0029119681 
         226    506.85195    740.24445    487.15522  0.002911949 
       226.2    507.26508    740.24445    487.56327 0.0029118112 
       226.4    506.15679    740.24445    488.04308  0.002912102 
       226.6    497.34749    740.24445     488.5313 0.0029124423 
       226.8    491.46467    740.24445    489.02544 0.0029128173 
         227    499.95654    740.24445    489.48545 0.0029129885 
       227.2    484.67841    740.24445    490.02296 0.0029136202 
       227.4     494.0059    740.24445    490.44623 0.0029135722 
       227.6    492.56094    740.24445    490.92328 0.0029138434 
       227.8    501.48172    740.24445     491.3549 0.0029138448 
         228    497.81026    740.24445    491.76972 0.0029137466 
       228.2    481.45421    740.24445     492.0994 0.0029131445 
       228.4    495.30703    740.24445    492.41979 0.0029124886 
       228.6     492.2204    740.24445    492.80875 0.0029122391 
       228.8    489.51602    740.24445    493.18596 0.0029119205 
         229    501.12795    740.24445    493.67499 0.0029122623 
       229.2    493.32718    740.24445    494.05201 0.0029119432 
       229.4    520.49323    740.24445    494.40907 0.0029115071 
       229.6    494.94155    740.24445    494.75515 0.0029110072 
       229.8    511.06991    740.24445    495.25956 0.0029114389 
         230    499.56132    740.24445    495.60879 0.0029109584 
       230.2    502.74541    740.24445    496.05561 0.0029110515 
       230.4    519.02133    740.24445    496.58447 0.0029116254 
       230.6     509.5776    740.24445    497.05777 0.0029118728 
       230.8    502.78656    740.24445     497.5318 0.0029121241 
         231    510.01051    740.24445    497.95119 0.0029120554 
       231.2    500.94429    740.24445    498.29129 0.0029115235 
       231.4    496.99245    740.24445    498.69101 0.0029113407 
       231.6    504.65281    740.24445    499.09702 0.0029111947 
       231.8    512.70211    740.24445    499.70427  0.002912222 
         232     511.2164    740.24445    500.11375 0.0029120957 
       232.2    494.21938    740.24445     500.4576 0.0029115879 
       232.4    499.06348    740.24445    500.80213  0.002911085 
       232.6    510.71414    740.24445    501.18817 0.0029108239 
       232.8    476.71911    740.24445    501.78613 0.0029117931 
         233    489.34114    740.24445     502.1664 0.0029114985 
       233.2    489.35962    740.24445    502.58789 0.0029114431 
       233.4    496.45411    740.24445    503.15887 0.0029122531 
       233.6    494.00733    740.24445    503.46529 0.0029115318 
       233.8    494.93523    740.24445    503.84139 0.0029112143 
         234    501.35312    740.24445    504.19743 0.0029107815 
       234.2    502.37861    740.24445    504.59432 0.0029105851 
       234.4    498.30637    740.24445    505.08904 0.0029109529 
       234.6     509.9943    740.24445    505.52227 0.0029109659 
       234.8     499.0843    740.24445    506.00289 0.0029112516 
         235    512.28304    740.24445     506.3766 0.0029109222 
       235.2    495.20019    740.24445    506.78355 0.0029107844 
       235.4     506.4807    740.24445    507.19914 0.0029106963 
       235.6    511.16109    740.24445    507.71727 0.0029111963 
       235.8    520.82085    740.24445    508.15487 0.0029112341 
         236    512.93751    740.24445    508.58836 0.0029112483 
       236.2    504.38508    740.24445    509.12143 0.0029118321 
       236.4    496.72517    740.24445     509.6497 0.0029123874 
[...]
       449.4    493.88242    740.24445    972.94989 0.0029247062 
       449.6    513.78996    740.24445    973.31128  0.002924491 
       449.8    490.06323    740.24445    973.68655 0.0029243177 
         450    498.23069    740.24445    974.05676 0.0029241294 
       450.2    494.25383    740.24445    974.53141 0.0029242547 
       450.4    494.85073    740.24445    974.93586 0.0029241692 
       450.6     495.9693    740.24445    975.34796 0.0029241068 
       450.8    504.13258    740.24445     975.7505 0.0029240158 
         451    488.14554    740.24445    976.24863 0.0029242112 
       451.2    521.20895    740.24445    976.60526 0.0029239828 
       451.4    496.53517    740.24445    977.07839 0.0029241032 
       451.6    510.72079    740.24445    977.61866 0.0029244243 
       451.8    501.93335    740.24445    977.97893  0.002924207 
         452    503.91944    740.24445    978.35173 0.0029240273 
       452.2    486.63319    740.24445     978.6757 0.0029237019 
       452.4    500.75829    740.24445    979.06762 0.0029235796 
       452.6    477.31772    740.24445    979.42789 0.0029233631 
       452.8    497.75473    740.24445    979.79327 0.0029231619 
         453    506.59396    740.24445    980.23128 0.0029231776 
       453.2    490.42431    740.24445    980.57002 0.0029228973 
       453.4    496.04343    740.24445    981.02148 0.0029229531 
       453.6    513.20288    740.24445    981.46998     0.002923 
       453.8    490.48466    740.24445    981.97943 0.0029232283 
         454    516.44362    740.24445    982.37881  0.002923129 
       454.2    504.71813    740.24445     982.8123 0.0029231311 
       454.4    500.67242    740.24445     983.2982 0.0029232891 
       454.6    509.41366    740.24445    983.78265 0.0029234426 
       454.8    506.45319    740.24445    984.16979 0.0029233069 
         455    499.14997    740.24445    984.58915  0.002923267 
       455.2     496.7286    740.24445    985.06001   0.00292338 
       455.4    499.27986    740.24445    985.49204 0.0029233777 
       455.6    480.78995    740.24445    985.96921 0.0029235093 
       455.8    527.28576    740.24445    986.36006 0.0029233849 
         456    506.28656    740.24445     986.6673 0.0029230129 
       456.2    509.04178    740.24445    987.03776 0.0029228284 
       456.4    505.63946    740.24445    987.42433 0.0029226919 
       456.6    508.42512    740.24445    987.81233 0.0029225596 
       456.8     480.3508    740.24445     988.1365 0.0029222387 
         457    492.67333    740.24445    988.58435 0.0029222837 
       457.2    492.85399    740.24445     988.9469 0.0029220766 
       457.4    498.33537    740.24445    989.42643 0.0029222151 
       457.6    499.68391    740.24445    989.82247 0.0029221071 
       457.8    504.12224    740.24445    990.27562 0.0029221677 
         458    513.43446    740.24445    990.63092 0.0029219397 
       458.2    498.80853    740.24445    991.11754 0.0029220989 
       458.4    494.39184    740.24445    991.51506 0.0029219955 
       458.6    503.24165    740.24445    992.08808 0.0029224092 
       458.8    503.51657    740.24445    992.59027 0.0029226139 
         459    500.25122    740.24445    993.06904 0.0029227495 
       459.2    500.03578    740.24445    993.50408 0.0029227564 
       459.4    493.27805    740.24445    993.96964  0.002922853 
       459.6    504.12986    740.24445    994.57127 0.0029233494 
       459.8    501.06223    740.24445    995.00287 0.0029233459 
         460    506.24227    740.24445    995.36821 0.0029231478 
       460.2    510.29491    740.24445    995.84085 0.0029232648 
       460.4     504.2488    740.24445    996.31498 0.0029233861 
       460.6    505.72625    740.24445     996.8146 0.0029235821 
       460.8    498.38837    740.24445     997.2872 0.0029236987 
         461    497.07846    740.24445    997.73273 0.0029237359 
       461.2    500.19579    740.24445    998.27279 0.0029240499 
       461.4    508.37473    740.24445    998.52047 0.0029235076 
       461.6    515.07976    740.24445    998.90583 0.0029233687 
       461.8     505.5619    740.24445    999.30283 0.0029232639 
         462    503.05773    740.24445    999.68994 0.0029231304 
       462.2    490.35959    740.24445    1000.1003  0.002923065 
       462.4     490.7222    740.24445    1000.4348 0.0029227779 
       462.6    518.55627    740.24445    1000.9551 0.0029230336 
       462.8    499.24765    740.24445    1001.4415 0.0029231902 
         463    502.73377    740.24445    1001.9795 0.0029234974 
       463.2    498.29372    740.24445    1002.3446 0.0029232998 
       463.4    514.10778    740.24445    1002.7525 0.0029232273 
       463.6    496.53848    740.24445    1003.0412 0.0029228073 
       463.8    494.29808    740.24445    1003.3382 0.0029224119 
         464    508.17329    740.24445    1003.7794 0.0029224368 
       464.2    497.12985    740.24445    1004.4827 0.0029232245 
       464.4    498.59729    740.24445    1004.8281 0.0029229704 
       464.6    503.39955    740.24445    1005.1898 0.0029227637 
       464.8    489.97875    740.24445    1005.6458 0.0029228315 
         465     499.7145    740.24445     1006.048 0.0029227429 
       465.2    493.16368    740.24445    1006.4888 0.0029227663 
       465.4    513.51672    740.24445    1006.9944 0.0029229778 
       465.6    492.99669    740.24445    1007.3879 0.0029228639 
       465.8    497.40584    740.24445    1007.8791 0.0029230334 
         466      503.294    740.24445     1008.279 0.0029229382 
       466.2    501.57279    740.24445    1008.7164 0.0029229517 
       466.4    479.21478    740.24445    1009.1748 0.0029230262 
       466.6    496.54097    740.24445    1009.6328 0.0029230991 
       466.8    499.81209    740.24445    1010.0839 0.0029231524 
         467    505.45064    740.24445    1010.6007 0.0029233955 
       467.2    510.87556    740.24445    1010.8817 0.0029229563 
       467.4    514.99072    740.24445     1011.497  0.002923484 
       467.6    519.29607    740.24445    1011.8374 0.0029232171 
       467.8    505.17386    740.24445    1012.2659 0.0029232047 
         468    505.60289    740.24445    1012.5816 0.0029228668 
       468.2     503.8264    740.24445    1013.0094 0.0029228525 
       468.4    513.84123    740.24445    1013.4657 0.0029229204 
       468.6    498.97473    740.24445    1013.8922 0.0029229025 
       468.8    497.50243    740.24445    1014.3732 0.0029230415 
         469    506.62529    740.24445    1014.9185 0.0029233657 
       469.2    500.08928    740.24445    1015.3231 0.0029232846 
       469.4    492.70307    740.24445    1015.6665 0.0029230273 
       469.6    499.64803    740.24445    1016.2925 0.0029235832 
       469.8    492.68435    740.24445     1016.645 0.0029233523 
         470    501.07635    740.24445    1017.1041 0.0029234278 
       470.2    494.08197    740.24445    1017.4258 0.0029231087 
       470.4    497.58855    740.24445    1017.9524 0.0029233781 
       470.6    498.46267    740.24445    1018.4268 0.0029234977 
       470.8    494.71055    740.24445    1018.8388 0.0029234379 
         471    508.97687    740.24445    1019.1906 0.0029232056 
       471.2    513.98978    740.24445    1019.7007 0.0029234271 
       471.4    513.35595    740.24445    1020.0924 0.0029233093 
       471.6      514.198    740.24445    1020.5861 0.0029234838 
       471.8    505.49249    740.24445    1021.2697 0.0029242019 
         472    515.82121    740.24445    1021.6787 0.0029241333 
       472.2    508.57941    740.24445    1022.0221 0.0029238774 
       472.4    506.41017    740.24445    1022.4927 0.0029239851 
       472.6    497.64764    740.24445    1022.9088 0.0029239371 
       472.8    500.07716    740.24445    1023.3524 0.0029239678 
         473     506.8682    740.24445    1023.7353 0.0029238251 
       473.2    504.45323    740.24445      1024.15 0.0029237733 
       473.4    494.59281    740.24445    1024.5912 0.0029237969 
       473.6    502.63105    740.24445    1024.9776 0.0029236643 
       473.8     491.8129    740.24445    1025.3284 0.0029234305 
         474    494.56505    740.24445    1025.6462 0.0029231028 
       474.2    498.27149    740.24445    1026.0349 0.0029229771 
       474.4    490.82993    740.24445    1026.4692 0.0029229815 
       474.6    503.83186    740.24445    1026.7969 0.0029226826 
       474.8    508.48364    740.24445    1027.3631 0.0029230624 
         475    480.31383    740.24445    1027.6587 0.0029226723 
       475.2     508.7606    740.24445    1028.1086 0.0029227214 
       475.4    501.97697    740.24445    1028.3494  0.002922176 
       475.6     486.2222    740.24445    1028.8706 0.0029224277 
       475.8    501.72686    740.24445    1029.3808 0.0029226476 
         476    490.00968    740.24445    1029.7309 0.0029224133 
       476.2    509.60659    740.24445    1030.2023 0.0029225232 
       476.4    503.94288    740.24445    1030.5767 0.0029223578 
       476.6     508.0691    740.24445    1031.0387 0.0029224411 
       476.8    509.52755    740.24445     1031.518 0.0029225733 
         477    502.33198    740.24445    1031.9995 0.0029227115 
       477.2    488.35146    740.24445    1032.5063 0.0029229213 
       477.4    508.69131    740.24445    1032.9519 0.0029229578 
       477.6    507.64816    740.24445    1033.4896 0.0029232545 
       477.8    485.17907    740.24445    1033.8519 0.0029230552 
         478    512.10446    740.24445    1034.3895 0.0029233517 
       478.2    488.35916    740.24445    1034.7793 0.0029232301 
       478.4    484.13089    740.24445    1035.3136 0.0029235168 
       478.6    509.27033    740.24445    1035.7763 0.0029236011 
       478.8    507.71774    740.24445    1036.1488 0.0029234309 
         479    491.96263    740.24445    1036.7671 0.0029239539 
       479.2    501.76069    740.24445    1037.2119 0.0029239875 
       479.4     504.7381    740.24445    1037.5234 0.0029236454 
       479.6    505.78264    740.24445    1037.9092 0.0029235131 
       479.8    504.55519    740.24445    1038.3807  0.002923622 
         480     488.1479    740.24445    1038.8085 0.0029236076 
       480.2     512.6097    740.24445    1039.3226 0.0029238364 
       480.4     498.5168    740.24445    1039.6548 0.0029235533 
       480.6    507.20953    740.24445    1040.1402 0.0029237011 
       480.8    481.88001    740.24445      1040.46 0.0029233832 
         481    501.98707    740.24445    1040.9703 0.0029236011 
       481.2     491.4323    740.24445    1041.3502 0.0029234523 
       481.4    514.73058    740.24445    1041.9349 0.0029238786 
       481.6    511.76993    740.24445     1042.304 0.0029236998 
       481.8    488.82096    740.24445    1042.6844 0.0029235527 
         482    511.96256    740.24445    1043.2005 0.0029237861 
       482.2    488.39454    740.24445    1043.5531 0.0029235613 
       482.4    516.49363    740.24445    1043.8985 0.0029233162 
       482.6    513.12459    740.24445    1044.2572  0.002923109 
       482.8    476.70798    740.24445    1044.6418 0.0029229742 
         483    515.24205    740.24445    1045.0595  0.002922932 
       483.2    502.40085    740.24445    1045.4143 0.0029227141 
       483.4    502.89393    740.24445    1045.7707  0.002922501 
       483.6    510.07206    740.24445    1046.1284 0.0029222917 
       483.8    504.48791    740.24445    1046.5513 0.0029222645 
         484    504.90496    740.24445    1046.9443 0.0029221538 
       484.2    498.10252    740.24445    1047.2508 0.0029218017 
       484.4    503.40369    740.24445    1047.7068 0.0029218671 
       484.6    517.17843    740.24445    1048.0555 0.0029216332 
       484.8    493.84452    740.24445    1048.4869 0.0029216301 
         485    507.24182    740.24445    1048.8951 0.0029215623 
       485.2    515.47261    740.24445    1049.3161 0.0029215302 
       485.4    497.74575    740.24445    1049.7048 0.0029214082 
       485.6    484.66814    740.24445    1050.0337 0.0029211199 
       485.8    500.81503    740.24445    1050.5468 0.0029213443 
         486     513.1804    740.24445     1051.064 0.0029215797 
       486.2    490.87205    740.24445    1051.5309 0.0029216753 
       486.4    495.37838    740.24445    1051.8587 0.0029213843 
       486.6    476.56503    740.24445    1052.4815 0.0029219126 
       486.8     499.7418    740.24445    1052.8373 0.0029216994 
         487     507.5374    740.24445    1053.2557   0.00292166 
       487.2     493.4761    740.24445    1053.6724 0.0029216163 
       487.4    507.54671    740.24445    1054.1135 0.0029216399 
       487.6    495.29228    740.24445    1054.6106 0.0029218188 
       487.8    494.97274    740.24445     1054.993 0.0029216798 
         488    503.84447    740.24445    1055.3726 0.0029215333 
       488.2     505.2495    740.24445    1055.9621 0.0029219677 
       488.4     489.6533    740.24445    1056.2886 0.0029216741 
       488.6    493.26283    740.24445     1056.774 0.0029218204 
       488.8     504.0461    740.24445    1057.2326 0.0029218923 
         489    504.49848    740.24445    1057.6838 0.0029219436 
       489.2    491.17742    740.24445    1058.0064   0.00292164 
       489.4    489.01925    740.24445    1058.3376 0.0029213601 
       489.6    514.98099    740.24445    1058.8443 0.0029215647 
       489.8     493.8701    740.24445    1059.2687 0.0029215425 
         490    496.26569    740.24445    1059.7335 0.0029216314 
       490.2    503.11197    740.24445    1060.2785 0.0029219412 
       490.4    502.02401    740.24445     1060.647 0.0029217647 
       490.6    489.00133    740.24445    1061.0434 0.0029216651 
       490.8    514.13794    740.24445    1061.4233 0.0029215202 
         491    481.79235    740.24445    1061.7809  0.002921314 
       491.2     514.6461    740.24445    1062.2302 0.0029213604 
       491.4    497.04681    740.24445    1062.5996 0.0029211869 
       491.6    510.96939    740.24445    1062.9191 0.0029208763 
       491.8    491.96646    740.24445    1063.2736 0.0029206622 
         492    499.03653    740.24445    1063.8789 0.0029211369 
       492.2     498.9674    740.24445     1064.341 0.0029212184 
       492.4    489.57733    740.24445    1064.7692 0.0029212065 
       492.6    502.44275    740.24445    1065.1884 0.0029211703 
       492.8    483.30413    740.24445    1065.6342 0.0029212068 
         493    507.69268    740.24445    1066.0542 0.0029211726 
       493.2    501.04861    740.24445    1066.4244 0.0029210019 
       493.4    510.80881    740.24445    1066.8483 0.0029209786 
       493.6      495.115    740.24445    1067.2812 0.0029209797 
       493.8    497.30505    740.24445    1067.7353 0.0029210391 
         494    502.86081    740.24445    1068.1771 0.0029210646 
       494.2    499.17898    740.24445    1068.5722 0.0029209625 
       494.4    494.00488    740.24445    1068.9324  0.002920765 
       494.6    493.86481    740.24445    1069.3438 0.0029207077 
       494.8    500.55173    740.24445    1069.7617  0.002920668 
         495    503.90651    740.24445    1070.3751 0.0029211619 
       495.2    499.19994    740.24445    1070.7792 0.0029210846 
       495.4     489.5044    740.24445    1071.4671 0.0029217812 
       495.6    511.05688    740.24445    1071.8964 0.0029217721 
       495.8    515.34293    740.24445    1072.3186 0.0029217439 
         496    502.99673    740.24445    1072.8788 0.0029220917 
       496.2    495.60147    740.24445    1073.2744 0.0029219909 
       496.4     512.6321    740.24445     1073.776 0.0029221787 
       496.6    503.64915    740.24445    1074.0531 0.0029217557 
       496.8    514.45689    740.24445    1074.4928  0.002921775 
         497    506.18366    740.24445      1075.19 0.0029224942 
       497.2    497.75218    740.24445    1075.5533 0.0029223057 
       497.4    503.52083    740.24445    1075.9294 0.0029221522 
       497.6    506.13011    740.24445     1076.374 0.0029221848 
       497.8    494.51101    740.24445    1076.6852 0.0029218551 
         498    486.19476    740.24445    1077.1074 0.0029218269 
       498.2    481.60594    740.24445    1077.5303 0.0029218009 
       498.4    502.65341    740.24445    1078.0102 0.0029219291 
       498.6     495.7415    740.24445    1078.3781  0.002921754 
       498.8    492.27493    740.24445     1078.734 0.0029215462 
         499    483.95223    740.24445    1079.1738 0.0029215659 
       499.2    512.57955    740.24445    1079.6257 0.0029216183 
       499.4    494.22062    740.24445    1080.0722 0.0029216561 
       499.6    508.96049    740.24445    1080.5616 0.0029218097 
       499.8    492.68462    740.24445    1080.9471 0.0029216824 
         500    498.37057    740.24445    1081.3433 0.0029215844 
Loop time of 691.562 on 8 procs for 500000 steps with 1000 atoms

Performance: 62.467 ns/day, 0.384 hours/ns, 723.001 timesteps/s
96.1% CPU use with 8 MPI tasks x no OpenMP threads

MPI task timing breakdown:
Section |  min time  |  avg time  |  max time  |%varavg| %total
---------------------------------------------------------------
Pair    | 431.51     | 446.13     | 474.26     |  70.1 | 64.51
Neigh   | 0          | 0          | 0          |   0.0 |  0.00
Comm    | 180.27     | 206.66     | 220.74     |  98.5 | 29.88
Output  | 0.14381    | 0.3122     | 1.4468     |  76.8 |  0.05
Modify  | 7.9741     | 8.4243     | 8.8562     |  10.8 |  1.22
Other   |            | 30.04      |            |       |  4.34

Nlocal:    125 ave 131 max 121 min
Histogram: 1 0 1 4 0 0 0 0 1 1
Nghost:    739.5 ave 743 max 733 min
Histogram: 1 0 1 0 0 0 0 1 3 2
Neighs:    0 ave 0 max 0 min
Histogram: 8 0 0 0 0 0 0 0 0 0
FullNghs:  4340 ave 4555 max 4205 min
Histogram: 1 0 5 0 0 0 0 1 0 1

Total # of neighbors = 34720
Ave neighs/atom = 34.72
Neighbor list builds = 0
Dangerous builds = 0

print ${flux} file ${LOC2}/flux-5-5.dat
print 0.00292158435266798 file ${LOC2}/flux-5-5.dat
print 0.00292158435266798 file ../output/output-2//flux-5-5.dat
0.00292158435266798


####-------------------SOME INFO ON VARIOUS FIXES---------------------------


####write_data snap/data.${N_steps}
#####dump dump1 all custom ${snap_save} snap/snap.*.lammps id type x y z


##### CONSTRUCT A TEMPERATURE PROFILE
##### THESE BINS ARE NOT RELATED TO thermal/conductivity Bins
#####  bin/1d args = dim origin delta
#####    dim = x or y or z
#####    origin = lower or center or upper or coordinate value (distance units)
#####    delta = thickness of spatial bins in dim (distance units)



#####fix ID group-ID ave/chunk Nevery Nrepeat Nfreq chunkID value1 value2 ... keyword args ...
#####ID, group-ID are documented in fix command
#####ave/chunk = style name of this fix command
#####Nevery = use input values every this many timesteps
#####Nrepeat = # of times to use input values for calculating averages
#####Nfreq = calculate averages every this many timesteps
#####chunkID = ID of compute chunk/atom command
#####one or more input values can be listed
#####value = vx, vy, vz, fx, fy, fz, density/mass, density/number, temp, c_ID, c_ID[I], f_ID, f_ID[I], v_name

#####For example, if Nevery=2, Nrepeat=6, and Nfreq=100, then values on timesteps 90,92,94,96,98,100 will be used to compute the final aver
####age on timestep 100. Similarly for timesteps 190,192,194,196,198,200 on timestep 200, etc. If Nrepeat=1 and Nfreq = 100, then no time a
####veraging is done; values are simply generated on timesteps 100,200,etc.





#####fix ID group-ID thermal/conductivity N edim Nbin keyword value ...
#####ID, group-ID are documented in fix command
#####thermal/conductivity = style name of this fix command
#####N = perform kinetic energy exchange every N steps
#####edim = x or y or z = direction of kinetic energy transfer
#####Nbin = # of layers in edim direction (must be even number)
#####zero or more keyword/value pairs may be appended
#####keyword = swap
#####swap value = Nswap = number of swaps to perform every N steps


Total wall time: 0:12:02
