
units 		metal
dimension	3
boundary	p	p	p
atom_style	atomic

###READ ATOMS
read_data ${LOC2}/TC-EQ-STRUCTURE-5-15
read_data ../output/output-2//TC-EQ-STRUCTURE-5-15
  orthogonal box = (-1.10372 -3.31115 -1.10372) to (26.1037 78.3112 26.1037)
  1 by 4 by 2 MPI processor grid
  reading atoms ...
  3000 atoms
  reading velocities ...
  3000 velocities

###load potential
pair_style sw
pair_coeff * * pot/Si.sw Si
Reading potential file pot/Si.sw with DATE: 2007-06-11
mass * 28.0855


####fix ID group-ID thermal/conductivity N edim Nbin keyword value ...
reset_timestep 0

fix 1 all thermal/conductivity ${swap_every} y ${TC_num_layers} swap ${num_swap}
fix 1 all thermal/conductivity 600 y ${TC_num_layers} swap ${num_swap}
fix 1 all thermal/conductivity 600 y 54 swap ${num_swap}
fix 1 all thermal/conductivity 600 y 54 swap 2

fix       2 all nve

#TEMPERATURE PROFILE
compute   KE all ke/atom
variable  temp1 atom c_KE/(1.5*0.00008617)
compute   layers all chunk/atom bin/1d y lower 2.0 #units reduced
fix 3 all ave/chunk 1 ${N_TC} ${N_TC} layers v_temp1 file ${LOC2}/TC-TEMP-PROFILE-5-15
fix 3 all ave/chunk 1 500000 ${N_TC} layers v_temp1 file ${LOC2}/TC-TEMP-PROFILE-5-15
fix 3 all ave/chunk 1 500000 500000 layers v_temp1 file ${LOC2}/TC-TEMP-PROFILE-5-15
fix 3 all ave/chunk 1 500000 500000 layers v_temp1 file ../output/output-2//TC-TEMP-PROFILE-5-15

thermo ${thermo_save}
thermo 600

variable A equal lx*lz
variable flux equal f_1/((time-0.000000000001)*v_A) #ADD -0.000001 to avoid division by zero
thermo_style custom time temp v_A f_1 v_flux

run ${N_TC}
run 500000
Neighbor list info ...
  1 neighbor list requests
  update every 1 steps, delay 10 steps, check yes
  max neighbors/atom: 2000, page size: 100000
  master list distance cutoff = 5.77118
  ghost atom cutoff = 5.77118
  binsize = 2.88559 -> bins = 10 29 10
Memory usage per processor = 2.65567 Mbytes
Time Temp A 1 flux 
           0    498.40073    740.24445            0           -0 
         0.6    499.54652    740.24445   0.46249178 0.0010413042 
         1.2    484.89051    740.24445   0.89638029 0.0010091039 
         1.8    490.28107    740.24445    1.2679942 0.00095163323 
         2.4    501.38637    740.24445    1.5843444 0.0008917912 
           3    505.57876    740.24445     2.055206 0.00092546274 
         3.6    499.60379    740.24445     2.541854 0.0009538343 
         4.2    486.32786    740.24445    2.8833452 0.00092741088 
         4.8     490.3575    740.24445    3.3182768 0.00093389105 
         5.4    491.62414    740.24445    3.6596756 0.0009155323 
           6    494.34718    740.24445    4.0543837 0.00091284794 
         6.6    486.32148    740.24445    4.5300429 0.00092722092 
         7.2    511.17805    740.24445    5.1133324 0.00095939262 
         7.8    502.15044    740.24445    5.5776027 0.00096600153 
         8.4    508.72692    740.24445    5.9067008 0.00094992764 
           9    511.88686    740.24445    6.2617006 0.0009398848 
         9.6    499.57322    740.24445     6.717833 0.00094532862 
        10.2    499.00784    740.24445    7.0450745 0.00093306147 
        10.8    508.70584    740.24445    7.4888959 0.00093673959 
        11.4    501.19712    740.24445    7.9628029 0.0009435957 
          12     508.9685    740.24445    8.3317196 0.00093794688 
        12.6    491.44502    740.24445     8.662726 0.00092877148 
        13.2    491.06292    740.24445    9.2024831 0.00094179404 
        13.8    505.33813    740.24445    9.6098387 0.00094072319 
        14.4    489.96766    740.24445    10.003995 0.00093850328 
          15    499.84783    740.24445    10.381278 0.00093494145 
        15.6    494.89258    740.24445    10.889522 0.00094299427 
        16.2    502.20316    740.24445    11.241115 0.0009373876 
        16.8    511.76342    740.24445    11.770193 0.00094645319 
        17.4    493.33074    740.24445    12.200469 0.00094722277 
          18    500.89113    740.24445    12.694231 0.00095270564 
        18.6    517.71059    740.24445    13.119885 0.00095288816 
        19.2    498.50879    740.24445    13.584159 0.00095577652 
        19.8    492.92944    740.24445     14.00802 0.0009557326 
        20.4     488.8741    740.24445    14.502575 0.00096037268 
          21    500.44583    740.24445    14.924019 0.00096004443 
        21.6     506.6078    740.24445    15.300217 0.00095690467 
        22.2    494.45217    740.24445     15.76093 0.00095907753 
        22.8    497.47787    740.24445    16.360895 0.00096938668 
        23.4    500.57876    740.24445    16.861376 0.0009734239 
          24    504.07106    740.24445    17.242124 0.00097051974 
        24.6     488.0011    740.24445    17.706902 0.0009723717 
        25.2     487.9068    740.24445    18.186115 0.00097490933 
        25.8    494.34038    740.24445     18.66079 0.0009770913 
        26.4    506.07574    740.24445    19.280241 0.00098658244 
          27    497.31208    740.24445    19.629159 0.00098211595 
        27.6    502.94125    740.24445    20.204161 0.00098890956 
        28.2    499.62905    740.24445    20.617979 0.00098769265 
        28.8    503.75528    740.24445    21.013186 0.00098565347 
        29.4    496.43166    740.24445    21.399776 0.0009833016 
          30    488.13901    740.24445    21.747906 0.00097931191 
        30.6    494.93202    740.24445    22.080315 0.00097478462 
        31.2     495.7305    740.24445    22.549384 0.00097634862 
        31.8    503.94597    740.24445    23.037896 0.00097867959 
        32.4    497.49535    740.24445    23.460854 0.00097819097 
          33    502.91637    740.24445    23.931359 0.00097966651 
        33.6    503.77312    740.24445    24.357461 0.00097930411 
        34.2    504.48128    740.24445    25.010459 0.00098791687 
        34.8    493.83477    740.24445    25.387974 0.0009855386 
        35.4    498.77653    740.24445    25.874052 0.00098738387 
          36    499.72235    740.24445    26.240312 0.00098467142 
        36.6    496.17554    740.24445    26.761596 0.00098776984 
        37.2    496.59764    740.24445    27.143807 0.00098571793 
        37.8    495.49314    740.24445    27.563539 0.00098507208 
        38.4    502.68418    740.24445    28.057259 0.00098704933 
          39    506.14338    740.24445    28.643265 0.00099216238 
        39.6    489.05777    740.24445    29.230286 0.00099715509 
        40.2    509.60028    740.24445    29.669955 0.0009970471 
        40.8     490.8326    740.24445    30.077268 0.00099587096 
        41.4    509.62374    740.24445    30.673926 0.0010009073 
          42    501.70204    740.24445    31.133511 0.0010013909 
        42.6    495.80386    740.24445    31.618722 0.0010026735 
        43.2    499.01042    740.24445    32.310962 0.0010103945 
        43.8    504.82353    740.24445    32.707082 0.0010087709 
        44.4     492.8433    740.24445    33.122023 0.0010077637 
          45    498.44318    740.24445    33.517829  0.001006209 
        45.6    502.14218    740.24445    33.931118 0.0010052132 
        46.2    504.81878    740.24445    34.282111 0.0010024216 
        46.8    493.46461    740.24445    34.960675 0.0010091571 
        47.4    506.75737    740.24445    35.374785 0.0010081852 
          48    498.00887    740.24445    35.726447   0.00100548 
        48.6     497.6664    740.24445     36.07762  0.001002828 
        49.2    497.19722    740.24445    36.456388 0.0010009984 
        49.8    499.88503    740.24445    36.919386 0.0010014977 
        50.4    501.05994    740.24445    37.413477 0.0010028186 
          51    496.71055    740.24445    37.923042 0.0010045182 
        51.6     492.1747    740.24445    38.302918 0.0010027831 
        52.2    507.58112    740.24445    38.656997 0.0010004202 
        52.8    491.50957    740.24445    39.117188 0.0010008259 
        53.4     499.1026    740.24445    39.570324  0.001001044 
          54    504.35115    740.24445    40.304654 0.0010082919 
        54.6    488.11442    740.24445    40.618146 0.0010049681 
        55.2    486.05785    740.24445    41.117567 0.0010062669 
        55.8    499.03518    740.24445     41.67331 0.0010089012 
        56.4    505.57599    740.24445    42.132744 0.0010091727 
          57    494.77921    740.24445    42.487784 0.0010069643 
        57.6    498.68215    740.24445    43.037649 0.0010093712 
        58.2    502.03035    740.24445    43.551186 0.0010108852 
        58.8    505.93543    740.24445    43.909217 0.0010087957 
        59.4     506.6275    740.24445    44.335626 0.0010083034 
          60    507.30255    740.24445    44.940209 0.0010118326 
        60.6    497.78267    740.24445    45.540318 0.0010151922 
        61.2    499.69505    740.24445    45.950555 0.0010142947 
        61.8     496.7674    740.24445    46.307159 0.0010122423 
        62.4    505.24675    740.24445    46.987686 0.0010172421 
          63    507.09761    740.24445    47.401555 0.0010164286 
        63.6    504.65157    740.24445    47.832117 0.0010159851 
        64.2    494.94274    740.24445    48.253133  0.001015349 
        64.8    501.70192    740.24445    48.702112 0.0010153076 
        65.4    500.40785    740.24445    49.090427 0.0010140139 
          66    501.78544    740.24445    49.398084 0.0010110928 
        66.6    490.60855    740.24445    49.723779 0.0010085902 
        67.2    492.07105    740.24445    50.137025 0.0010078923 
        67.8    491.45671    740.24445    50.694456 0.0010100796 
        68.4    501.29785    740.24445    51.200389 0.0010112115 
          69     498.1594    740.24445    51.507644 0.0010084339 
        69.6    491.91147    740.24445    51.990406 0.0010091107 
        70.2    501.28963    740.24445    52.462027 0.0010095615 
        70.8    497.45268    740.24445    52.971656   0.00101073 
        71.4    502.08629    740.24445    53.413432 0.0010105949 
          72    506.54643    740.24445    53.934521 0.0010119503 
        72.6    498.73339    740.24445    54.350102   0.00101132 
        73.2    497.87725    740.24445    54.652767 0.0010086161 
        73.8    492.26999    740.24445    55.158654 0.0010096762 
        74.4    499.20908    740.24445    55.597663 0.0010095049 
          75    500.58704    740.24445    55.990165 0.0010084986 
        75.6    499.15041    740.24445    56.414527 0.0010080777 
        76.2    504.64982    740.24445    56.949907 0.0010096315 
        76.8    508.92229    740.24445     57.36211 0.0010089944 
        77.4    499.14037    740.24445     57.93986 0.0010112565 
          78    498.15676    740.24445    58.428105 0.0010119337 
        78.6    494.37299    740.24445    58.890256  0.001012152 
        79.2     495.1693    740.24445    59.528373 0.0010153685 
        79.8    505.79222    740.24445     59.99949 0.0010157095 
        80.4     500.2428    740.24445    60.396657 0.0010148029 
          81    498.60184    740.24445    60.859474 0.0010150046 
        81.6    496.34747    740.24445    61.416625 0.0010167651 
        82.2    497.50975    740.24445    61.869473 0.0010167857 
        82.8    487.23033    740.24445    62.375761 0.0010176779 
        83.4    505.46693    740.24445    62.732821 0.0010161401 
          84    497.75299    740.24445    63.221881 0.0010167472 
        84.6    497.16368    740.24445    63.604351 0.0010156435 
        85.2    507.68744    740.24445    64.162027 0.0010173334 
        85.8    495.40836    740.24445    64.636291 0.0010176864 
        86.4    506.25699    740.24445    65.025899 0.0010167109 
          87    509.94761    740.24445    65.375548 0.0010151283 
        87.6    502.15074    740.24445    65.820976 0.0010150444 
        88.2    492.73331    740.24445    66.255022 0.0010147874 
        88.8    506.42204    740.24445    66.735641 0.0010152423 
        89.4    502.70786    740.24445    67.348264 0.0010176858 
          90    493.20884    740.24445     67.79067 0.0010175418 
        90.6    498.61643    740.24445    68.122191 0.0010157463 
        91.2     506.1329    740.24445    68.611111 0.0010163059 
        91.8     508.9413    740.24445     69.00082 0.0010153983 
        92.4    493.82572    740.24445     69.38975  0.001014491 
          93    493.83057    740.24445      69.8484 0.0010146082 
        93.6    505.75239    740.24445    70.331769 0.0010150806 
        94.2    495.71414    740.24445    70.658158 0.0010132958 
        94.8    487.68561    740.24445    71.128316 0.0010135823 
        95.4    504.05888    740.24445     71.55213  0.001013209 
          96    504.82862    740.24445    72.160672 0.0010154398 
        96.6     500.0198    740.24445    72.675344 0.0010163301 
        97.2    496.46121    740.24445    73.170161 0.0010169336 
        97.8    504.49013    740.24445     73.60971 0.0010167662 
        98.4    490.85398    740.24445    74.033798 0.0010163886 
          99    499.10104    740.24445    74.539171 0.0010171247 
        99.6    499.52572    740.24445    75.018397 0.0010174973 
       100.2    506.84527    740.24445    75.488321 0.0010177401 
       100.8    505.23329    740.24445     75.83843 0.0010163742 
       101.4    494.08004    740.24445    76.289677 0.0010163719 
         102    499.96297    740.24445    76.819559 0.0010174111 
       102.6    492.73867    740.24445    77.295441 0.0010177271 
       103.2    490.38959    740.24445     77.86102 0.0010192136 
       103.8    498.03171    740.24445    78.241658 0.0010182761 
       104.4    503.37038    740.24445    78.688013 0.0010181996 
         105     502.2775    740.24445    79.161512 0.0010184732 
       105.6    502.82373    740.24445     79.57064 0.0010179203 
       106.2    498.27169    740.24445    80.081903 0.0010186728 
       106.8    490.11893    740.24445    80.507987 0.0010183394 
       107.4    503.19329    740.24445    80.969713 0.0010184581 
         108    497.56004    740.24445    81.379111 0.0010179209 
       108.6    493.32821    740.24445    81.777595 0.0010172539 
       109.2    498.77268    740.24445    82.201408 0.0010169075 
       109.8    492.58734    740.24445    82.658257 0.0010169714 
       110.4    494.22944    740.24445    83.099729 0.0010168464 
         111    497.91814    740.24445    83.501549 0.0010162403 
       111.6    510.68703    740.24445    84.021762 0.0010170737 
       112.2    498.89847    740.24445    84.330777 0.0010153554 
       112.8    502.00806    740.24445    84.788931 0.0010154415 
       113.4    509.70704    740.24445    85.423824 0.0010176321 
         114     492.9885    740.24445    85.863982  0.001017492 
       114.6     491.0504    740.24445    86.327033 0.0010176233 
       115.2    500.98312    740.24445    86.673187 0.0010163824 
       115.8    496.06798    740.24445    87.046247 0.0010154682 
       116.4    505.94585    740.24445    87.453008 0.0010149546 
         117    497.57121    740.24445    87.915688 0.0010150919 
       117.6    498.98882    740.24445     88.31465 0.0010144958 
       118.2    501.44003    740.24445    88.818556 0.0010151052 
       118.8    508.61952    740.24445    89.237441 0.0010147417 
       119.4    501.45443    740.24445    89.769159 0.0010156584 
         120    498.72139    740.24445    90.148224 0.0010148475 
       120.6    488.07899    740.24445    90.525666 0.0010140264 
       121.2    495.44176    740.24445    91.026431  0.001014588 
       121.8    498.37738    740.24445    91.437067 0.0010141445 
       122.4    503.19453    740.24445    92.066928 0.0010161249 
         123    499.88043    740.24445    92.614593 0.0010171831 
       123.6    489.41198    740.24445    93.139021 0.0010179772 
       124.2     501.3404    740.24445    93.717923  0.001019356 
       124.8    497.93082    740.24445    94.261655 0.0010203409 
       125.4    504.08241    740.24445    94.625362 0.0010193771 
         126    497.54275    740.24445    95.061782  0.001019202 
       126.6    498.51008    740.24445    95.431751 0.0010183194 
       127.2    496.88891    740.24445    95.831041 0.0010177566 
       127.8    505.10027    740.24445    96.296818 0.0010179019 
       128.4    502.81389    740.24445    96.732712 0.0010177314 
         129    503.80011    740.24445    97.105395 0.0010169006 
       129.6    499.32427    740.24445    97.527339 0.0010165909 
       130.2    494.92881    740.24445    97.857049 0.0010153271 
       130.8    496.05879    740.24445     98.22367 0.0010144561 
       131.4     489.0789    740.24445    98.772463 0.0010154659 
         132    496.49419    740.24445    99.191496 0.0010151386 
       132.6    499.31645    740.24445    99.566201 0.0010143627 
       133.2    491.17245    740.24445      100.028  0.001014477 
       133.8    496.20067    740.24445    100.37806 0.0010134621 
       134.4    490.41156    740.24445    100.62582  0.001011428 
         135    495.16731    740.24445    101.01561 0.0010108334 
       135.6     510.3281    740.24445    101.61581 0.0010123401 
       136.2    497.49058    740.24445    101.93324 0.0010110289 
       136.8    489.98202    740.24445    102.37676 0.0010109743 
       137.4    504.15877    740.24445    102.76063 0.0010103338 
         138    496.77151    740.24445    103.49936 0.0010131726 
       138.6    493.41314    740.24445    103.99563 0.0010136236 
       139.2    501.14017    740.24445    104.60371 0.0010151557 
       139.8    513.11312    740.24445    104.95723  0.001014215 
       140.4    491.90821    740.24445    105.23778 0.0010125802 
         141    507.93856    740.24445    105.69206 0.0010126237 
       141.6    493.31004    740.24445     106.1308 0.0010125186 
       142.2    493.83338    740.24445    106.52613  0.001012002 
       142.8    506.75991    740.24445    106.90279 0.0010113132 
       143.4    490.87456    740.24445    107.37279 0.0010115094 
         144    502.67969    740.24445    107.87532 0.0010120091 
       144.6     500.0695    740.24445    108.28593  0.001011646 
       145.2    510.18216    740.24445    108.71291 0.0010114382 
       145.8    508.69373    740.24445    109.16888 0.0010115006 
       146.4    496.16091    740.24445    109.56246  0.001010987 
         147    504.58035    740.24445    109.95131 0.0010104339 
       147.6     498.4174    740.24445    110.45721 0.0010109567 
       148.2    496.48968    740.24445    111.02027 0.0010119963 
       148.8    505.69174    740.24445    111.42212 0.0010115639 
       149.4    497.58403    740.24445    111.94077 0.0010121911 
         150    505.17752    740.24445    112.47595 0.0010129623 
       150.6    499.81384    740.24445    112.90978  0.001012818 
       151.2    508.71666    740.24445    113.38107 0.0010130097 
       151.8    503.79595    740.24445    113.87224 0.0010133767 
       152.4    494.58458    740.24445    114.43247  0.001014353 
         153     500.0647    740.24445     114.8473  0.001014038 
       153.6    493.56794    740.24445    115.24651 0.0010135879 
       154.2    500.94674    740.24445     115.7127 0.0010137281 
       154.8    498.03526    740.24445    116.16448 0.0010137415 
       155.4     494.8552    740.24445    116.76961 0.0010150879 
         156    494.54514    740.24445    117.20452 0.0010149499 
       156.6    508.94525    740.24445    117.75691 0.0010158264 
       157.2     502.7059    740.24445    118.17014 0.0010155002 
       157.8     506.3766    740.24445    118.71855 0.0010163339 
       158.4    503.83518    740.24445    119.10412 0.0010157725 
         159    495.22387    740.24445    119.52146 0.0010154852 
       159.6     496.5715    740.24445     120.0634 0.0010162548 
       160.2    497.31281    740.24445    120.55102 0.0010165605 
       160.8    512.86744    740.24445    120.94197 0.0010160517 
       161.4    498.99408    740.24445    121.38742  0.001016003 
         162    491.88036    740.24445     121.8774 0.0010163259 
       162.6    501.85215    740.24445    122.28282 0.0010159439 
       163.2    501.08163    740.24445    122.68057 0.0010155012 
       163.8     506.6312    740.24445    123.11532  0.001015367 
       164.4    496.74744    740.24445    123.60426  0.001015679 
         165    501.45132    740.24445    123.92337 0.0010145982 
       165.6    492.73672    740.24445    124.37319 0.0010145916 
       166.2    503.76946    740.24445    124.81416 0.0010145131 
       166.8    507.61398    740.24445    125.24241 0.0010143322 
       167.4    492.94413    740.24445    125.69115 0.0010143179 
         168     493.7686    740.24445    126.13746 0.0010142841 
       168.6    495.88036    740.24445    126.58969 0.0010142981 
       169.2    486.68734    740.24445    127.22314 0.0010157588 
       169.8    491.83425    740.24445    127.61857 0.0010153155 
       170.4    504.65636    740.24445    128.16029 0.0010160351 
         171    505.98424    740.24445    128.47692 0.0010149715 
       171.6     492.1112    740.24445    128.84244 0.0010143001 
       172.2    495.19867    740.24445    129.17932 0.0010134088 
       172.8    498.68173    740.24445    129.77168  0.001014521 
       173.4    505.00156    740.24445    130.27763 0.0010149522 
         174    496.46006    740.24445    130.63261 0.0010142084 
       174.6     490.2806    740.24445    131.27445 0.0010156892 
       175.2    499.08781    740.24445    131.87476 0.0010168396 
       175.8     499.5709    740.24445    132.16318 0.0010155854 
       176.4    508.36733    740.24445     132.6852 0.0010161288 
         177    497.00604    740.24445    132.98265 0.0010149545 
       177.6    498.48032    740.24445    133.47266 0.0010152528 
       178.2    494.45187    740.24445    133.88429  0.001014955 
       178.8     500.1845    740.24445    134.34484 0.0010150287 
       179.4    498.05685    740.24445    135.03059 0.0010167977 
         180    495.55082    740.24445    135.46222 0.0010166478 
       180.6    493.08964    740.24445    136.01389 0.0010173967 
       181.2    509.59716    740.24445    136.31023 0.0010162372 
       181.8    507.11072    740.24445     136.9133 0.0010173645 
       182.4    505.87243    740.24445    137.26323 0.0010166096 
         183     496.4745    740.24445    137.75663 0.0010169188 
       183.6    492.81247    740.24445    138.19665 0.0010168331 
       184.2    499.96724    740.24445    138.87964   0.00101853 
       184.8    494.34405    740.24445    139.34294 0.0010186098 
       185.4     503.4636    740.24445    139.83361 0.0010188886 
         186    495.21294    740.24445    140.18465 0.0010181514 
       186.6    506.22562    740.24445    140.66855 0.0010183808 
       187.2    499.75163    740.24445    141.18312 0.0010188301 
       187.8    490.38029    740.24445     141.6494 0.0010189292 
       188.4    499.94729    740.24445    142.12496 0.0010190941 
         189    491.81018    740.24445    142.62248  0.001019415 
       189.6    489.85745    740.24445    143.09992 0.0010195908 
       190.2    499.15523    740.24445    143.48263 0.0010190926 
       190.8    498.53452    740.24445    143.92234 0.0010190012 
       191.4    511.96062    740.24445    144.43739  0.001019442 
         192    496.57633    740.24445    144.93531 0.0010197596 
       192.6    503.22374    740.24445    145.43638 0.0010200973 
       193.2    502.03976    740.24445    145.93748 0.0010204332 
       193.8    494.72173    740.24445    146.48228 0.0010210715 
       194.4    498.82733    740.24445    147.02537  0.001021694 
         195    495.75088    740.24445    147.45364 0.0010215173 
       195.6    498.17602    740.24445    147.78895 0.0010206996 
       196.2    495.55405    740.24445    148.30759 0.0010211492 
       196.8    512.69459    740.24445    148.77942 0.0010212748 
       197.4     503.1723    740.24445    149.35577 0.0010221148 
         198    499.30927    740.24445     149.9123 0.0010228146 
       198.6    501.69937    740.24445    150.27183 0.0010221701 
       199.2    491.57209    740.24445    150.86951 0.0010231445 
       199.8     486.1652    740.24445    151.34385 0.0010232792 
       200.4    507.46747    740.24445    151.82525 0.0010234606 
         201     493.5012    740.24445    152.24548 0.0010232298 
       201.6    505.44582    740.24445    152.69341 0.0010231861 
       202.2    503.10539    740.24445    153.17153 0.0010233442 
       202.8    497.87438    740.24445     153.6117 0.0010232486 
       203.4    508.66423    740.24445    154.11603 0.0010235798 
         204    510.98095    740.24445    154.81596 0.0010252043 
       204.6    494.13165    740.24445    155.25376 0.0010250884 
       205.2     499.5856    740.24445      155.739 0.0010252856 
       205.8    504.87587    740.24445    156.12368 0.0010248216 
       206.4    497.72701    740.24445     156.5287 0.0010244933 
         207    499.78898    740.24445     156.9757  0.001024441 
       207.6    481.88857    740.24445     157.3341 0.0010238123 
       208.2    503.17015    740.24445    157.75388 0.0010235856 
       208.8    490.89716    740.24445    158.18632 0.0010234421 
       209.4    500.62905    740.24445    158.52302 0.0010226818 
         210    498.88203    740.24445    158.81711 0.0010216516 
       210.6    500.30102    740.24445    159.30415 0.0010218651 
       211.2    503.88343    740.24445    159.82516 0.0010222946 
       211.8    501.71449    740.24445    160.33269 0.0010226357 
       212.4    508.34517    740.24445    160.75152 0.0010224108 
         213    500.08366    740.24445    161.17784 0.0010222346 
       213.6     496.6089    740.24445    161.63424 0.0010222496 
       214.2     494.6605    740.24445    162.01857   0.00102181 
       214.8    488.64633    740.24445     162.3645 0.0010211315 
       215.4    497.97187    740.24445    162.76128 0.0010207755 
         216    504.99023    740.24445    163.28872 0.0010212387 
       216.6    492.36014    740.24445    163.88586 0.0010221341 
       217.2    494.28578    740.24445    164.38691 0.0010224269 
       217.8    500.70269    740.24445    164.76615 0.0010219625 
       218.4    484.20931    740.24445    165.13397   0.00102143 
         219    503.69203    740.24445    165.51296 0.0010209694 
       219.6    498.84967    740.24445    165.96869 0.0010209834 
       220.2    508.99241    740.24445    166.41114 0.0010209158 
       220.8     508.3636    740.24445     166.8288 0.0010206969 
       221.4    498.38319    740.24445    167.32989 0.0010209882 
         222     486.3383    740.24445    167.81151 0.0010211596 
       222.6    502.07429    740.24445    168.18774 0.0010206904 
       223.2    502.23394    740.24445    168.52034 0.0010199596 
       223.8    496.40661    740.24445    168.91728 0.0010196211 
       224.4    499.26562    740.24445    169.28606  0.001019115 
         225    501.56172    740.24445    169.87461  0.001019931 
       225.6    492.22387    740.24445    170.31984 0.0010198845 
       226.2    499.71138    740.24445    170.73495 0.0010196584 
       226.8    496.12648    740.24445    171.37091 0.0010207489 
       227.4    497.94072    740.24445    171.78058 0.0010204893 
         228    498.40511    740.24445    172.27205 0.0010207157 
       228.6     495.5783    740.24445    172.69159  0.001020516 
       229.2    490.91372    740.24445    173.02144 0.0010197886 
       229.8    492.93673    740.24445    173.37711 0.0010192168 
       230.4    500.43693    740.24445    174.22807  0.001021552 
         231    495.03596    740.24445     174.8048 0.0010222714 
       231.6    490.49607    740.24445    175.18392 0.0010218344 
       232.2      493.879    740.24445     175.7057 0.0010222296 
       232.8    500.79946    740.24445    176.04674  0.001021574 
       233.4    500.49871    740.24445    176.41599 0.0010210851 
         234    505.70649    740.24445    176.81647 0.0010207789 
       234.6    493.63476    740.24445    177.29823 0.0010209424 
       235.2      488.108    740.24445    177.70371 0.0010206669 
       235.8    496.52957    740.24445    178.08994 0.0010202825 
       236.4    497.07642    740.24445    178.65425 0.0010209177 
         237    499.67569    740.24445    179.12147 0.0010209962 
       237.6    504.47934    740.24445    179.58944 0.0010210787 
       238.2    506.14894    740.24445    179.94765 0.0010205382 
       238.8    502.07996    740.24445    180.33247  0.001020151 
       239.4    502.47667    740.24445    180.76585 0.0010200397 
         240    484.67421    740.24445    181.17603 0.0010197984 
       240.6    504.27157    740.24445    181.75733 0.0010205192 
       241.2    497.68927    740.24445    182.08731 0.0010198286 
       241.8    502.39693    740.24445    182.48311 0.0010195093 
       242.4    498.75383    740.24445    182.82543 0.0010188936 
         243    495.69048    740.24445    183.21637 0.0010185511 
       243.6    504.80023    740.24445     183.6817 0.0010186229 
       244.2    502.29273    740.24445    184.28272  0.001019445 
       244.8    502.47957    740.24445    184.82992  0.001019966 
       245.4    500.92049    740.24445    185.36857 0.0010204374 
         246    501.62884    740.24445    185.75043 0.0010200455 
       246.6    502.36974    740.24445    186.24289 0.0010202614 
       247.2    501.61469    740.24445    186.70883 0.0010203313 
       247.8    504.64543    740.24445     187.1164 0.0010200827 
       248.4    504.14621    740.24445    187.48391 0.0010196174 
         249    502.29341    740.24445    187.86135 0.0010192083 
       249.6     499.8262    740.24445    188.36453 0.0010194816 
       250.2    485.17198    740.24445    188.81203  0.001019453 
       250.8    498.88548    740.24445    189.29024 0.0010195899 
       251.4     494.2338    740.24445    189.68988  0.001019304 
         252    488.30565    740.24445    190.10307 0.0010190921 
       252.6    503.48839    740.24445    190.59022 0.0010192767 
       253.2    497.98301    740.24445    191.21038 0.0010201701 
       253.8    505.31463    740.24445    191.70822 0.0010204082 
       254.4    502.82256    740.24445    192.26839 0.0010209762 
         255    500.86372    740.24445    192.66279 0.0010206633 
       255.6    505.24043    740.24445    192.97582 0.0010199218 
       256.2    497.67339    740.24445    193.37207 0.0010196226 
       256.8    498.90351    740.24445    193.83248 0.0010196623 
       257.4    495.10186    740.24445    194.32832 0.0010198878 
         258    500.49337    740.24445    194.79237 0.0010199458 
       258.6    505.69805    740.24445    195.31073 0.0010202872 
       259.2     495.9527    740.24445    195.78317 0.0010203877 
       259.8    500.42309    740.24445    196.24149 0.0010204143 
       260.4    501.32322    740.24445    196.61841 0.0010200185 
         261    498.48733    740.24445    197.12301 0.0010202854 
       261.6    503.25383    740.24445    197.70634 0.0010209576 
       262.2    498.93695    740.24445    198.05503 0.0010204178 
       262.8    499.70394    740.24445    198.46778 0.0010202098 
       263.4    501.22475    740.24445    198.87055 0.0010199516 
         264    496.62935    740.24445    199.28406 0.0010197495 
       264.6    493.98283    740.24445    199.62169 0.0010191608 
       265.2    495.15269    740.24445    200.10313 0.0010193074 
       265.8    502.94268    740.24445    200.53334 0.0010191931 
       266.4    496.83193    740.24445    200.93865 0.0010189529 
         267    493.51356    740.24445    201.52383 0.0010196238 
       267.6    498.69254    740.24445    201.97881 0.0010196346 
       268.2    500.82578    740.24445    202.35809 0.0010192639 
       268.8    496.62498    740.24445     202.7351 0.0010188835 
       269.4    506.82518    740.24445    203.07847 0.0010183361 
         270    506.78677    740.24445    203.50075 0.0010181859 
       270.6    502.65571    740.24445    203.93003 0.0010180714 
       271.2    494.43816    740.24445    204.54513  0.001018883 
       271.8    494.02854    740.24445    204.98785 0.0010188342 
       272.4    496.84099    740.24445    205.48759 0.0010190684 
         273    495.08981    740.24445     205.8578 0.0010186606 
       273.6    498.73906    740.24445    206.41723 0.0010191889 
       274.2    499.69063    740.24445    206.94199 0.0010195441 
       274.8    494.58745    740.24445    207.28017 0.0010189805 
       275.4    501.47192    740.24445    207.74961 0.0010190632 
         276    505.63053    740.24445    208.37191 0.0010198938 
       276.6    487.23541    740.24445    208.84838 0.0010200085 
       277.2    503.91204    740.24445    209.41703 0.0010205719 
       277.8    510.01145    740.24445    209.87924 0.0010206153 
       278.4    487.45716    740.24445    210.27747 0.0010203481 
         279    487.90167    740.24445    210.55787 0.0010195115 
       279.6    500.03519    740.24445    210.94027 0.0010191713 
       280.2     497.3052    740.24445    211.35209 0.0010189744 
       280.8    498.84941    740.24445    211.84482 0.0010191675 
       281.4    492.85244    740.24445     212.2038 0.0010187178 
         282    498.71231    740.24445    212.76094 0.0010192193 
       282.6    493.92165    740.24445    213.32753 0.0010197638 
       283.2    487.44927    740.24445    213.79264 0.0010198219 
       283.8    506.18769    740.24445    214.27921 0.0010199819 
       284.4    498.09349    740.24445    214.82834 0.0010204385 
         285    505.69674    740.24445    215.24424 0.0010202615 
       285.6     499.0989    740.24445    215.65758 0.0010200733 
       286.2    494.19896    740.24445    216.02931 0.0010196894 
       286.8    499.22898    740.24445    216.46546 0.0010196105 
       287.4    496.66416    740.24445     216.8613 0.0010193425 
         288    500.98055    740.24445    217.23462   0.00101897 
       288.6    485.90571    740.24445    217.71971 0.0010191222 
       289.2    497.99108    740.24445    218.11091 0.0010188352 
       289.8    492.48669    740.24445    218.47616 0.0010184284 
       290.4     501.2088    740.24445    218.99092 0.0010187188 
         291    505.71596    740.24445    219.47845 0.0010188816 
       291.6    511.81483    740.24445    220.06143  0.001019486 
       292.2    502.39564    740.24445    220.46002 0.0010192353 
       292.8     495.5153    740.24445     220.9767 0.0010195306 
       293.4    503.69521    740.24445    221.59498 0.0010202924 
         294    492.84366    740.24445    222.00436 0.0010200912 
       294.6    499.28591    740.24445    222.40813 0.0010198652 
       295.2    495.92931    740.24445     222.9352 0.0010202043 
       295.8    495.59811    740.24445    223.31323 0.0010198613 
       296.4    498.62235    740.24445    223.72888 0.0010196912 
         297    497.76444    740.24445    224.12416 0.0010194292 
       297.6    491.59459    740.24445    224.60958 0.0010195774 
       298.2    492.71933    740.24445    225.12582 0.0010198646 
       298.8    507.57313    740.24445    225.61983 0.0010200501 
       299.4     501.2533    740.24445    225.94999 0.0010194956 
         300     506.7858    740.24445    226.53499 0.0010200909 
       300.6    501.47809    740.24445     227.0257 0.0010202601 
       301.2    506.64871    740.24445    227.57858 0.0010207074 
       301.8    497.14394    740.24445    227.98052 0.0010204773 
       302.4    490.74244    740.24445     228.4478   0.00102054 
         303    482.68072    740.24445    228.79948 0.0010200871 
       303.6    493.00866    740.24445    229.19835 0.0010198459 
       304.2    494.96077    740.24445    229.57677 0.0010195149 
       304.8    502.45383    740.24445    230.10822 0.0010198634 
       305.4    497.26319    740.24445     230.6286 0.0010201616 
         306    504.27815    740.24445    231.05772 0.0010200557 
       306.6    498.55038    740.24445    231.67353 0.0010207728 
       307.2     502.5935    740.24445    232.07146  0.001020529 
       307.8     505.9831    740.24445     232.4752 0.0010203117 
       308.4    503.67009    740.24445    232.88103 0.0010201043 
         309    501.08956    740.24445    233.38996 0.0010203485 
       309.6    504.67686    740.24445    233.80398 0.0010201776 
       310.2    496.57369    740.24445    234.31736 0.0010204401 
       310.8    496.00378    740.24445    234.86621 0.0010208557 
       311.4    501.83198    740.24445    235.39166 0.0010211683 
         312    497.74212    740.24445    235.79827  0.001020965 
       312.6    502.97567    740.24445    236.31298 0.0010212297 
       313.2    494.76842    740.24445    236.79797 0.0010213652 
       313.8    509.76345    740.24445    237.41964 0.0010220886 
       314.4    497.57513    740.24445    237.95963 0.0010224583 
         315    496.53097    740.24445    238.48466 0.0010227624 
       315.6    505.87668    740.24445    239.02007 0.0010231097 
       316.2    500.50335    740.24445    239.50363 0.0010232343 
       316.8     495.8109    740.24445    239.86086 0.0010228196 
       317.4    502.10314    740.24445    240.29139 0.0010227185 
         318    496.80092    740.24445     240.6874 0.0010224712 
       318.6    493.39828    740.24445    241.12516 0.0010224018 
       319.2    506.17672    740.24445    241.49605 0.0010220496 
       319.8     495.3471    740.24445    242.03676 0.0010224162 
       320.4    497.31176    740.24445    242.51267 0.0010225081 
         321    491.32387    740.24445    242.89229 0.0010221945 
       321.6     500.5099    740.24445    243.33773 0.0010221585 
       322.2    491.58937    740.24445    243.67532 0.0010216705 
       322.8    500.21659    740.24445    244.18838 0.0010219186 
       323.4    495.47381    740.24445    244.49918 0.0010213209 
         324    500.26435    740.24445    244.93152 0.0010212322 
       324.6    511.15767    740.24445    245.53064 0.0010218379 
       325.2    499.69244    740.24445    246.01271 0.0010219552 
       325.8    499.62411    740.24445    246.39556 0.0010216606 
       326.4    503.77819    740.24445    246.94316  0.001022049 
         327    489.59402    740.24445    247.44404 0.0010222429 
       327.6    497.53533    740.24445    247.97761 0.0010225709 
       328.2    489.70411    740.24445     248.5775 0.0010231706 
       328.8    500.30173    740.24445    248.98249 0.0010229675 
       329.4    498.27072    740.24445    249.38642 0.0010227607 
         330    496.44162    740.24445    249.85384 0.0010228146 
       330.6    503.20089    740.24445    250.41619 0.0010232562 
       331.2    496.14654    740.24445    250.80958 0.0010230071 
       331.8    500.86756    740.24445    251.24347 0.0010229237 
       332.4    492.18715    740.24445    251.78731 0.0010232875 
         333    507.53451    740.24445    252.14412 0.0010228912 
       333.6    500.73233    740.24445    252.80852  0.001023742 
       334.2    502.03966    740.24445    253.34912 0.0010240892 
       334.8    499.20438    740.24445    253.81938 0.0010241514 
       335.4     496.3419    740.24445     254.3887 0.0010246124 
         336    498.80911    740.24445    254.78019 0.0010243567 
       336.6    506.70721    740.24445    255.23373  0.001024351 
       337.2    493.99958    740.24445    255.66461 0.0010242545 
       337.8    498.52438    740.24445    256.19327 0.0010245494 
       338.4    499.58096    740.24445    256.60085 0.0010243599 
         339    497.25259    740.24445    257.02338 0.0010242307 
       339.6     497.1796    740.24445    257.40947 0.0010239569 
       340.2    504.32439    740.24445    258.01525 0.0010245565 
       340.8    496.26055    740.24445    258.45971 0.0010245145 
       341.4    511.05828    740.24445    258.86015 0.0010242985 
         342    496.15178    740.24445    259.28829 0.0010241926 
       342.6    502.00763    740.24445    259.71329 0.0010240747 
       343.2    496.62738    740.24445    260.14202  0.001023972 
       343.8    493.52046    740.24445     260.5948 0.0010239641 
       344.4    488.38281    740.24445     261.0416 0.0010239327 
         345    503.07826    740.24445    261.39538 0.0010235373 
       345.6    504.16419    740.24445    261.96241 0.0010239767 
       346.2    501.83655    740.24445    262.40024 0.0010239105 
       346.8    508.76226    740.24445    262.85155  0.001023897 
       347.4    504.65317    740.24445    263.34793 0.0010240589 
         348    500.86591    740.24445    263.80854 0.0010240813 
       348.6    498.87967    740.24445    264.19208  0.001023805 
       349.2    504.17669    740.24445    264.53925 0.0010233889 
       349.8       498.96    740.24445    264.88432 0.0010229662 
       350.4     495.6299    740.24445    265.37721 0.0010231148 
         351    501.23362    740.24445    265.64548 0.0010223984 
       351.6     492.1227    740.24445    266.10308 0.0010224119 
       352.2    499.63075    740.24445    266.56165  0.001022429 
       352.8    496.49351    740.24445    266.92253  0.001022072 
       353.4    495.90509    740.24445    267.37658 0.0010220724 
         354    492.70636    740.24445     267.7606 0.0010218055 
       354.6    504.44586    740.24445     268.1787 0.0010216694 
       355.2     495.2915    740.24445    268.56572 0.0010214156 
       355.8    495.89172    740.24445    268.96239 0.0010211992 
       356.4    492.57325    740.24445    269.40678 0.0010211644 
         357    502.36769    740.24445    269.80056 0.0010209382 
       357.6    501.64081    740.24445    270.30253 0.0010211216 
       358.2    505.82671    740.24445    270.87537 0.0010215715 
       358.8    511.35137    740.24445    271.29214 0.0010214324 
       359.4    495.43445    740.24445    271.64405 0.0010210499 
         360    491.84243    740.24445    272.10497 0.0010210777 
       360.6    509.64539    740.24445    272.54668 0.0010210335 
       361.2    503.37201    740.24445    272.99183 0.0010210024 
       361.8    502.35996    740.24445    273.29517 0.0010204418 
       362.4    508.70908    740.24445     273.6583 0.0010201059 
         363    500.01985    740.24445    274.14536 0.0010202324 
       363.6    497.71508    740.24445    274.57093   0.00102013 
       364.2    488.63657    740.24445    275.00082  0.001020044 
       364.8    489.56635    740.24445    275.45324 0.0010200416 
       365.4    492.85757    740.24445    275.83373 0.0010197734 
         366    499.39631    740.24445    276.18425 0.0010193954 
       366.6    494.83252    740.24445    276.60208 0.0010192667 
       367.2    506.03946    740.24445    277.16204 0.0010196613 
       367.8     510.0072    740.24445    277.56904 0.0010194927 
       368.4    501.23985    740.24445    278.10188 0.0010197862 
         369    497.83223    740.24445    278.71999 0.0010203909 
       369.6    501.46566    740.24445    279.09312 0.0010200983 
       370.2    499.05904    740.24445    279.49665 0.0010199175 
       370.8    506.09184    740.24445    279.84876 0.0010195499 
       371.4    499.28134    740.24445    280.47138 0.0010201675 
         372    498.87077    740.24445    280.86618 0.0010199558 
       372.6    500.69612    740.24445    281.20409 0.0010195385 
       373.2    493.65964    740.24445    281.57168   0.00101923 
       373.8    486.91864    740.24445    281.97914 0.0010190665 
       374.4    496.40604    740.24445    282.41788 0.0010190164 
         375    494.48311    740.24445    282.91651 0.0010191823 
       375.6    504.16856    740.24445    283.34301 0.0010190882 
       376.2    494.33933    740.24445    283.70819 0.0010187742 
       376.8    494.61896    740.24445    284.09812 0.0010185499 
       377.4    503.22998    740.24445    284.49412 0.0010183481 
         378    497.73273    740.24445    284.99333 0.0010185157 
       378.6    498.45404    740.24445    285.46906 0.0010185991 
       379.2    508.01894    740.24445    285.90093 0.0010185259 
       379.8    499.12067    740.24445    286.34646 0.0010185016 
       380.4    506.56995    740.24445    286.99114 0.0010191845 
         381     508.8403    740.24445    287.51346 0.0010194315 
       381.6    501.89606    740.24445    287.99463  0.001019532 
       382.2    503.06694    740.24445    288.37473  0.001019275 
       382.8    498.00791    740.24445    288.92359 0.0010196143 
       383.4    495.23532    740.24445    289.39876 0.0010196929 
         384    497.00859    740.24445    289.78652 0.0010194638 
       384.6      499.453    740.24445    290.17365 0.0010192331 
       385.2    499.13313    740.24445     290.5687  0.001019031 
       385.8    502.46729    740.24445    290.89849  0.001018601 
       386.4    507.35609    740.24445    291.35428 0.0010186128 
         387    501.92639    740.24445    291.75817 0.0010184434 
       387.6    504.58197    740.24445     292.2011 0.0010184106 
       388.2    501.11906    740.24445    292.66872 0.0010184639 
       388.8    495.74369    740.24445    293.22771 0.0010188344 
       389.4    495.90002    740.24445    293.64108 0.0010186986 
         390    512.14017    740.24445       294.18 0.0010189981 
       390.6    499.08781    740.24445    294.69044 0.0010191982 
       391.2    495.61677    740.24445    295.16474 0.0010192729 
       391.8    497.67388    740.24445    295.60517 0.0010192306 
       392.4    507.86606    740.24445    295.98326 0.0010189737 
         393    498.27395    740.24445    296.51991 0.0010192628 
       393.6    496.40007    740.24445    297.16298 0.0010199161 
       394.2    498.40963    740.24445     297.6846 0.0010201513 
       394.8    499.49122    740.24445    298.14916 0.0010201905 
       395.4    496.96207    740.24445     298.6862 0.0010204773 
         396    497.88537    740.24445    299.12948 0.0010204433 
       396.6    498.10161    740.24445    299.72652 0.0010209331 
       397.2    506.70319    740.24445    300.15389 0.0010208444 
       397.8    491.61917    740.24445    300.53753 0.0010206076 
       398.4    496.55789    740.24445    300.95958 0.0010205016 
         399    491.29193    740.24445    301.31614 0.0010201742 
       399.6    500.51272    740.24445    301.77656 0.0010201989 
       400.2    494.07747    740.24445    302.18065 0.0010200334 
       400.8    499.33456    740.24445    302.54904 0.0010197481 
       401.4    498.46091    740.24445    303.08634 0.0010200321 
         402    498.31441    740.24445    303.56149 0.0010201064 
       402.6    490.20414    740.24445    304.00768 0.0010200833 
       403.2    508.63649    740.24445    304.47007 0.0010201145 
       403.8    501.13462    740.24445    304.91242 0.0010200786 
       404.4    494.22822    740.24445    305.23007 0.0010196263 
         405    506.63939    740.24445    305.64923 0.0010195138 
       405.6    497.24347    740.24445    306.28881 0.0010201359 
       406.2    501.83916    740.24445    306.77516 0.0010202465 
       406.8    511.62949    740.24445    307.25255  0.001020327 
       407.4    498.34901    740.24445    307.71348 0.0010203527 
         408    498.64265    740.24445    308.07025 0.0010200335 
       408.6    506.40546    740.24445    308.57922 0.0010202184 
       409.2    495.44104    740.24445    309.15982 0.0010206392 
       409.8    497.80492    740.24445    309.46665 0.0010201564 
       410.4    506.41157    740.24445    309.94556 0.0010202413 
         411    494.10648    740.24445    310.36872 0.0010201428 
       411.6    503.19633    740.24445    310.73428 0.0010198555 
       412.2    493.40645    740.24445    311.03368 0.0010193522 
       412.8    509.22106    740.24445    311.41123 0.0010191061 
       413.4    503.98634    740.24445    311.76189 0.0010187729 
         414    501.91937    740.24445    312.33736 0.0010191742 
       414.6    492.21381    740.24445    312.99133 0.0010198301 
       415.2    496.95697    740.24445    313.30062 0.0010193627 
       415.8    501.72905    740.24445    313.60728 0.0010188881 
       416.4    502.32972    740.24445    313.96724 0.0010185878 
         417    490.88609    740.24445    314.28167 0.0010181408 
       417.6    507.09136    740.24445    314.60784 0.0010177331 
       418.2    501.69081    740.24445     315.1196 0.0010179261 
       418.8    501.95022    740.24445    315.59198 0.0010179914 
       419.4    489.38143    740.24445    315.99344 0.0010178282 
         420    498.08902    740.24445    316.32985 0.0010174562 
       420.6    490.83447    740.24445    316.78431 0.0010174644 
       421.2    493.36814    740.24445     317.2596 0.0010175394 
       421.8    490.22332    740.24445    317.63345 0.0010172893 
       422.4    503.85743    740.24445     318.1582 0.0010175226 
         423    502.61717    740.24445    318.88431 0.0010183982 
       423.6    491.35724    740.24445    319.50212  0.001018926 
       424.2    500.97671    740.24445    320.00213 0.0010190771 
       424.8    498.64614    740.24445    320.40097 0.0010189061 
       425.4    492.79391    740.24445    320.85033  0.001018896 
         426    505.02306    740.24445    321.32258 0.0010189585 
       426.6    488.54659    740.24445    321.88214 0.0010192973 
       427.2    503.72942    740.24445    322.28732  0.001019147 
       427.8    499.99191    740.24445    322.71144 0.0010190569 
       428.4    497.52278    740.24445     323.2909 0.0010194569 
         429    498.80223    740.24445     323.7257 0.0010194002 
       429.6    498.29324    740.24445    324.14171 0.0010192847 
       430.2    499.70713    740.24445    324.54853 0.0010191405 
       430.8    507.18263    740.24445     325.0337 0.0010192425 
       431.4    502.18469    740.24445    325.46017 0.0010191604 
         432    505.35161    740.24445    325.91498 0.0010191671 
       432.6    496.50198    740.24445     326.2704 0.0010188635 
       433.2    499.40379    740.24445    326.60754 0.0010185037 
       433.8    491.69111    740.24445    327.07945 0.0010185645 
       434.4    496.85827    740.24445    327.65082 0.0010189345 
         435    500.76648    740.24445    328.14176 0.0010190537 
       435.6     485.0179    740.24445    328.57061 0.0010189801 
       436.2    491.76594    740.24445    328.90673 0.0010186194 
       436.8    495.16763    740.24445     329.2611 0.0010183162 
       437.4    500.61461    740.24445    329.61519 0.0010180129 
         438    498.42929    740.24445    330.07415 0.0010180339 
       438.6    495.24196    740.24445     330.4476 0.0010177915 
       439.2    500.72407    740.24445    330.75934 0.0010173599 
       439.8    501.15983    740.24445    331.22479 0.0010174017 
       440.4    506.22935    740.24445    331.55293 0.0010170221 
         441    499.94621    740.24445    332.11789  0.001017369 
       441.6    494.32785    740.24445    332.61924 0.0010175204 
       442.2    498.79452    740.24445     333.0945 0.0010175917 
       442.8    496.88997    740.24445    333.59703  0.001017746 
       443.4    491.07283    740.24445    333.96155 0.0010174794 
         444    495.01882    740.24445    334.37726 0.0010173692 
       444.6    497.82853    740.24445     334.9307 0.0010176779 
       445.2    508.92433    740.24445    335.45051 0.0010178836 
       445.8    494.47333    740.24445    335.78888  0.001017539 
       446.4    504.82161    740.24445    336.30374 0.0010177295 
         447    504.45262    740.24445    336.73982 0.0010176813 
       447.6    496.99262    740.24445    337.22898 0.0010177934 
       448.2    502.73421    740.24445    337.59424 0.0010175319 
       448.8    496.88091    740.24445      338.209  0.001018022 
       449.4    490.54986    740.24445    338.69228 0.0010181155 
         450     498.7372    740.24445    339.18771 0.0010182454 
       450.6    497.40174    740.24445      339.832 0.0010188211 
       451.2    501.27217    740.24445    340.30589 0.0010188851 
       451.8    495.09678    740.24445    340.79876 0.0010190057 
       452.4    503.60127    740.24445    341.26065 0.0010190335 
         453    499.49573    740.24445    341.81203 0.0010193281 
       453.6    493.45255    740.24445    342.21377 0.0010191762 
       454.2    497.35862    740.24445    342.84684 0.0010197128 
       454.8    496.06647    740.24445    343.20248 0.0010194239 
       455.4    503.90582    740.24445     343.6155 0.0010193059 
         456    500.28568    740.24445    343.95172 0.0010189608 
       456.6    496.66398    740.24445    344.36332 0.0010188396 
       457.2    503.48785    740.24445    344.91114 0.0010191212 
       457.8    496.68955    740.24445    345.46665 0.0010194248 
       458.4    493.52509    740.24445    346.04807 0.0010198039 
         459    496.13566    740.24445     346.4563 0.0010196723 
       459.6    499.14389    740.24445    346.88862 0.0010196118 
       460.2    506.27584    740.24445    347.22361 0.0010192659 
       460.8    502.06923    740.24445    347.72358 0.0010194044 
       461.4     505.5824    740.24445    348.09467 0.0010191653 
         462    480.00849    740.24445    348.47102 0.0010189421 
       462.6    500.46034    740.24445    348.97155 0.0010190822 
       463.2     509.3525    740.24445    349.39359 0.0010189931 
       463.8    503.81802    740.24445    349.74367 0.0010186945 
       464.4    504.64424    740.24445    350.29096 0.0010189704 
         465    491.15121    740.24445    350.61063 0.0010185843 
       465.6     497.2077    740.24445    351.05688 0.0010185664 
       466.2     501.8791    740.24445    351.50044 0.0010185408 
       466.8    503.42085    740.24445    351.93631 0.0010184931 
       467.4    503.29897    740.24445    352.29379 0.0010182188 
         468    500.08203    740.24445    352.72216 0.0010181499 
       468.6     494.1478    740.24445    353.28915 0.0010184808 
       469.2    502.01822    740.24445    353.70749 0.0010183829 
       469.8    499.30646    740.24445     354.1877 0.0010184631 
       470.4    497.71939    740.24445     354.6415 0.0010184673 
         471    511.68973    740.24445    355.24396 0.0010188978 
       471.6    496.79905    740.24445     355.7305 0.0010189952 
       472.2    502.87077    740.24445    356.21936  0.001019099 
       472.8    507.11895    740.24445    356.58952 0.0010188634 
       473.4    490.02534    740.24445    356.97226 0.0010186642 
         474     504.0397    740.24445     357.4874 0.0010188429 
       474.6    490.11827    740.24445    357.85874 0.0010186119 
       475.2    501.43857    740.24445    358.32208 0.0010186429 
       475.8    499.31702    740.24445    358.76338 0.0010186114 
       476.4    502.15445    740.24445    359.10773 0.0010183049 
         477    497.58863    740.24445    359.56033 0.0010183058 
       477.6    493.45019    740.24445    360.13133 0.0010186416 
       478.2    491.29327    740.24445    360.74531  0.001019098 
       478.8    493.81336    740.24445     361.0774 0.0010187579 
       479.4    496.37273    740.24445    361.61076 0.0010189859 
         480    498.55528    740.24445    361.93731 0.0010186312 
       480.6    493.51811    740.24445    362.35272 0.0010185271 
       481.2      501.654    740.24445    362.87828 0.0010187326 
       481.8     501.5864    740.24445    363.36049  0.001018816 
       482.4    486.16324    740.24445    363.70368 0.0010185099 
         483    498.29264    740.24445    364.10945 0.0010183795 
       483.6    501.63176    740.24445    364.55155  0.001018351 
       484.2    491.71502    740.24445    364.96877 0.0010182531 
       484.8     503.6803    740.24445    365.53726  0.001018577 
       485.4    495.47696    740.24445    365.90815 0.0010183502 
         486    498.44965    740.24445    366.50778 0.0010187597 
       486.6     497.9184    740.24445    367.02761 0.0010189467 
       487.2    492.16364    740.24445    367.28165 0.0010183963 
       487.8    497.96901    740.24445    367.67875 0.0010182433 
       488.4    498.68581    740.24445    368.04977 0.0010180187 
         489    495.20776    740.24445    368.70218 0.0010185719 
       489.6    492.83348    740.24445    369.19327 0.0010186787 
       490.2    508.82497    740.24445    369.80552  0.001019119 
       490.8    490.66686    740.24445    370.07023 0.0010186018 
       491.4    498.98344    740.24445    370.52639 0.0010186121 
         492    491.04142    740.24445    370.93063 0.0010184798 
       492.6    501.43133    740.24445    371.59916 0.0010190727 
       493.2    501.52084    740.24445    372.03128 0.0010190165 
       493.8    498.71927    740.24445     372.4231 0.0010188503 
       494.4     494.5735    740.24445    372.89749   0.00101891 
         495    498.52671    740.24445    373.22112 0.0010185582 
       495.6    502.90511    740.24445    373.69012 0.0010186035 
       496.2    513.69923    740.24445    374.26547 0.0010189382 
       496.8    502.80764    740.24445    374.61292 0.0010186524 
       497.4    496.22359    740.24445    374.92404 0.0010182686 
         498    498.88679    740.24445    375.43917 0.0010184391 
       498.6    498.07979    740.24445    375.81229 0.0010182245 
       499.2    495.09116    740.24445    376.22486 0.0010181172 
       499.8    499.48228    740.24445    376.71858 0.0010182294 
ERROR: Fix in variable not computed at compatible time (../variable.cpp:1581)
