
units 		metal
dimension	3
boundary	p	p	p
atom_style	atomic

##READ ATOMS
read_data ${LOC1}/NVT-EQ-STRUCTURE-5-5
read_data ../output/output-1//NVT-EQ-STRUCTURE-5-5
  orthogonal box = (-1.10372 -5.51858 -1.10372) to (26.1037 130.519 26.1037)
  1 by 8 by 2 MPI processor grid
  reading atoms ...
  5000 atoms
  reading velocities ...
  5000 velocities
velocity all create ${T} 4928459 rot yes mom yes dist gaussian
velocity all create 500 4928459 rot yes mom yes dist gaussian

##load potential
pair_style sw
pair_coeff * * pot/Si.sw Si
Reading potential file pot/Si.sw with DATE: 2007-06-11
mass * 28.0855

reset_timestep 0

#LET THE FIX EQUILIBIRATE
###fix ID group-ID thermal/conductivity N edim Nbin keyword value ...
fix 1 all thermal/conductivity ${swap_every} y ${TC_num_layers} swap ${num_swap}
fix 1 all thermal/conductivity 100 y ${TC_num_layers} swap ${num_swap}
fix 1 all thermal/conductivity 100 y 18 swap ${num_swap}
fix 1 all thermal/conductivity 100 y 18 swap 2

fix       2 all nve

thermo ${thermo_save}
thermo 100
thermo_style custom time temp f_1 #v_flux
run ${N_TC_EQ}
run 50000
Neighbor list info ...
  1 neighbor list requests
  update every 1 steps, delay 10 steps, check yes
  max neighbors/atom: 2000, page size: 100000
  master list distance cutoff = 5.77118
  ghost atom cutoff = 5.77118
  binsize = 2.88559 -> bins = 10 48 10
Memory usage per processor = 2.40289 Mbytes
Time Temp 1 
           0          500            0 
         0.1     498.8636   0.53572341 
         0.2    511.36324    1.0666555 
         0.3    501.35863    1.5660264 
         0.4    498.16114    2.0838154 
         0.5       503.93    2.7161677 
         0.6     505.7914    3.2717308 
         0.7    493.57975    3.7578536 
         0.8    484.79005    4.2412184 
         0.9    498.06981    4.7339991 
           1    499.70547     5.174268 
         1.1    486.75427    5.7563029 
         1.2    498.58484    6.4474224 
         1.3    489.36648    6.9458854 
         1.4    501.89337    7.4721888 
         1.5    488.01287    7.8622216 
         1.6    484.72095    8.2768463 
         1.7    502.50846    8.7504167 
         1.8     499.6724    9.1389796 
         1.9    487.22222    9.6168468 
           2    483.60032    10.064016 
         2.1    493.22914    10.685976 
         2.2    493.52512    11.244261 
         2.3    489.22862    11.758524 
         2.4    502.44561    12.330083 
         2.5    500.51798    12.898073 
         2.6    493.63237    13.429474 
         2.7    492.62615    13.977948 
         2.8    489.52793    14.476422 
         2.9    489.98075    15.056634 
           3    485.23707    15.546913 
         3.1     499.2262    16.029035 
         3.2    501.84613    16.655803 
         3.3    492.72702    17.214327 
         3.4    498.41587    17.844201 
         3.5    501.96728    18.541904 
         3.6    484.48333    18.947133 
         3.7    513.59213    19.430594 
         3.8    505.24889    19.915041 
         3.9    503.57804    20.512801 
           4    500.89555    21.030438 
         4.1    505.60699    21.694014 
         4.2    501.42474    22.121447 
         4.3    517.82413    22.608443 
         4.4    513.52637    23.116167 
         4.5    498.60578    23.644951 
         4.6    476.04947    24.076495 
         4.7    581.30865    24.670835 
         4.8    589.60736    25.257971 
         4.9    478.33207    25.681231 
           5    493.85091    26.075128 
         5.1    507.93511    26.528583 
         5.2    520.80504    26.996641 
         5.3    507.66598    27.577184 
         5.4    506.00248    28.218936 
         5.5    497.57663    28.676073 
         5.6    497.38311    29.077969 
         5.7    503.77458    29.542556 
         5.8    494.39531    30.013539 
         5.9     496.8205     30.62827 
           6    501.71206    31.225783 
         6.1     494.6487    31.792111 
         6.2    487.74699    32.374163 
         6.3    500.74891    32.914659 
         6.4    503.33229    33.398503 
         6.5    497.29772    33.891068 
         6.6    488.94274    34.559466 
         6.7    499.00689    35.045751 
         6.8    497.85468    35.660265 
         6.9    503.55156    36.231223 
           7    495.77519     36.67105 
         7.1    498.95681    37.116905 
         7.2    490.40463    37.752096 
         7.3    483.76225    38.260468 
         7.4    496.06975    38.722576 
         7.5    501.36478    39.163728 
         7.6     498.4926    39.678842 
         7.7    490.74838     40.29143 
         7.8    493.71402    40.779753 
         7.9    500.77221    41.375374 
           8    503.51097    42.079259 
         8.1    498.63251    42.715578 
         8.2    500.72479    43.164582 
         8.3    506.31304     43.66159 
         8.4    494.30447    44.027791 
         8.5    496.94275    44.578157 
         8.6    499.95768    45.002547 
         8.7    508.24382    45.622872 
         8.8    499.94931    46.070178 
         8.9    493.05319    46.629552 
           9    505.81738     47.10191 
         9.1    517.35453    47.682845 
         9.2    504.38143    48.153636 
         9.3    494.99019    48.669755 
         9.4    494.46913    49.162059 
         9.5    528.99989    49.850818 
         9.6    502.24996    50.286235 
         9.7    488.54334    50.742578 
         9.8    504.68469    51.348901 
         9.9    501.23469    51.765455 
          10    501.58337    52.472533 
        10.1    500.14384    52.987691 
        10.2    495.83393    53.575452 
        10.3    500.54269    54.262465 
        10.4    498.00113    54.899033 
        10.5    491.90357    55.438329 
        10.6    493.11636    55.950262 
        10.7    502.33061    56.375126 
        10.8    498.98047     57.00488 
        10.9    492.21626    57.543837 
          11    503.45405    58.176081 
        11.1    498.56816    58.758563 
        11.2    500.53173    59.331109 
        11.3    497.52053    59.882975 
        11.4    501.47907    60.465446 
        11.5    505.16301    61.013113 
        11.6    500.57757    61.542484 
        11.7    494.50899    62.131248 
        11.8    500.62395    62.698589 
        11.9    494.46265    63.277862 
          12    498.22818    63.808368 
        12.1    495.47294    64.402605 
        12.2    495.89377    64.883682 
        12.3    498.38524    65.447348 
        12.4    505.42568    65.829012 
        12.5    496.47403    66.442806 
        12.6    493.97895    67.004234 
        12.7     496.4392    67.492229 
        12.8    495.54885    67.963067 
        12.9    499.76695    68.443616 
          13    501.19339    68.889953 
        13.1    502.70539    69.444829 
        13.2    492.46485    69.928642 
        13.3    502.63353    70.463642 
        13.4     493.6907    71.046223 
        13.5    497.21577    71.527294 
        13.6    497.47365    72.104913 
        13.7    496.76671    72.624146 
        13.8    502.41208    73.141092 
        13.9     496.6791    73.626958 
          14    504.90964    74.126306 
        14.1    502.71544    74.615221 
        14.2    496.98546    75.086438 
        14.3    499.89615    75.615389 
        14.4     498.1372     76.20807 
        14.5    492.56997    76.696461 
        14.6    499.04277    77.146041 
        14.7    497.96055    77.704519 
        14.8     496.9389    78.163336 
        14.9    500.29755    78.628451 
          15    498.73745    79.418241 
        15.1    501.82357    80.280921 
        15.2    500.99781    80.896828 
        15.3    498.93745    81.520922 
        15.4    500.81294    81.921695 
        15.5    506.08329    82.511289 
        15.6    506.43784    83.038567 
        15.7    499.05246    83.595765 
        15.8    498.26442    84.089464 
        15.9    496.59748    84.638467 
          16    498.40008    85.113859 
        16.1    499.92091    85.546732 
        16.2    500.67224    86.120209 
        16.3    496.71658    86.688882 
        16.4    490.75554     87.17496 
        16.5    502.36157    87.811754 
        16.6    496.12916    88.326414 
        16.7    499.01862    88.843119 
        16.8    498.97942    89.358071 
        16.9    486.46137    89.800314 
          17    501.80083    90.347537 
        17.1    497.51121     90.78809 
        17.2    507.72846    91.314311 
        17.3     494.7267    91.956459 
        17.4    496.77078    92.536071 
        17.5    502.91683    92.966401 
        17.6    496.73019    93.325785 
        17.7    499.82247     93.92843 
        17.8    506.24131    94.472774 
        17.9    502.23378    94.988556 
          18    490.33132    95.461669 
        18.1    499.92688    96.081124 
        18.2    498.20987    96.503495 
        18.3    494.18129    96.988796 
        18.4    498.63164    97.516149 
        18.5    500.40419      98.0092 
        18.6    495.88624    98.584471 
        18.7     499.7251    99.122911 
        18.8    501.41431    99.577374 
        18.9    492.42003    100.05728 
          19    495.60603    100.48178 
        19.1    499.09387    101.13248 
        19.2    496.90864    101.61428 
        19.3    496.20889    102.10775 
        19.4    494.46386    102.53237 
        19.5    494.76951    103.01727 
        19.6    498.15217    103.39036 
        19.7    501.24552    103.85943 
        19.8    501.34298    104.41097 
        19.9    492.88387    105.05512 
          20    500.52161    105.74519 
        20.1    504.74379    106.36971 
        20.2    491.40203    106.79546 
        20.3    488.95646    107.25562 
        20.4    493.25848    107.74947 
        20.5    501.88227    108.32735 
        20.6    506.45144    108.77478 
        20.7    493.44037    109.23229 
        20.8    501.06806    109.79787 
        20.9    503.53649    110.37371 
          21    496.53421    110.83847 
        21.1    502.08962    111.37347 
        21.2     498.7911    111.90463 
        21.3    497.14402    112.36026 
        21.4    499.48321    112.93587 
        21.5    501.05517    113.53026 
        21.6    504.05579    114.21585 
        21.7    495.08171     114.7579 
        21.8    505.63355    115.26618 
        21.9    494.89496    115.86693 
          22    492.49334    116.34451 
        22.1    499.11941    116.78495 
        22.2    500.02084    117.16915 
        22.3    497.46173    117.81287 
        22.4    496.34595     118.2504 
        22.5    498.40425    118.74435 
        22.6    503.01496    119.34445 
        22.7     492.5174    119.80293 
        22.8    497.88283    120.40541 
        22.9    500.34776    120.87962 
          23    499.67956    121.36153 
        23.1    502.64184    121.90033 
        23.2    503.58993    122.48587 
        23.3    502.13081    122.99355 
        23.4    493.59948    123.43532 
        23.5    497.13211      123.879 
        23.6    501.28664    124.32177 
        23.7    497.74685    124.97365 
        23.8    503.27544    125.56401 
        23.9    498.21616    126.09317 
          24    498.64386    126.61388 
        24.1    506.18908    127.06164 
        24.2    501.02813    127.59163 
        24.3    492.67811     128.0725 
        24.4    501.60777    128.71233 
        24.5    496.46075    129.16555 
        24.6    502.94876    129.59983 
        24.7    494.52853    130.15809 
        24.8    500.26795    130.67173 
        24.9    492.47602    131.15364 
          25    500.23922    131.71008 
        25.1    497.79708    132.24568 
        25.2    497.90491     132.7123 
        25.3    501.77005    133.27653 
        25.4    504.16026    133.75115 
        25.5    493.96002    134.24499 
        25.6    510.74495    134.76041 
        25.7    503.05719    135.30149 
        25.8    495.75805    135.80528 
        25.9    496.52903    136.34174 
          26    500.87319    136.97792 
        26.1    495.23898    137.56156 
        26.2    493.46637    138.30251 
        26.3     497.3749     138.7694 
        26.4     502.3944    139.20706 
        26.5    497.20468    139.66213 
        26.6    503.20312    140.12454 
        26.7    494.94365    140.61428 
        26.8    501.85195    141.02526 
        26.9    504.71107    141.68604 
          27    493.25615    142.07539 
        27.1    497.11243    142.57626 
        27.2    503.30091    143.07511 
        27.3    497.76206    143.53891 
        27.4     496.1948     144.1384 
        27.5    499.24278    144.65538 
        27.6    496.50784    145.12432 
        27.7    498.25821     145.5515 
        27.8    502.67911    146.03961 
        27.9    501.55546     146.4835 
          28    496.30916    146.94582 
        28.1    503.85268    147.39121 
        28.2    497.85587    147.85552 
        28.3    492.49742    148.28521 
        28.4     498.0336    148.77087 
        28.5    507.42132    149.29853 
        28.6    495.85931    149.72613 
        28.7    492.06922    150.23456 
        28.8    496.87153     150.7575 
        28.9    504.27123    151.28823 
          29    506.45802    151.91497 
        29.1     500.9729    152.56026 
        29.2    496.07009    153.15761 
        29.3     499.1529    153.62303 
        29.4    499.55169    154.03348 
        29.5    502.61432    154.55849 
        29.6     513.5033    155.08186 
        29.7    500.37113    155.50644 
        29.8    494.30873    156.01112 
        29.9    494.55109    156.52027 
          30    503.82557    156.91626 
        30.1    502.51807    157.45963 
        30.2    495.47944     157.9956 
        30.3    494.86659    158.49147 
        30.4    506.99241    159.25621 
        30.5    501.98153    159.70523 
        30.6    495.18965    160.30671 
        30.7    498.96972    160.78098 
        30.8     493.4622    161.26573 
        30.9    502.12628    161.73976 
          31    500.23455    162.19127 
        31.1    488.49791       162.69 
        31.2    491.67313    163.14506 
        31.3    502.48302    163.74002 
        31.4    497.95266    164.35211 
        31.5    501.50263    164.81569 
        31.6    499.65804    165.29367 
        31.7    491.69899    165.75835 
        31.8    491.80952    166.22339 
        31.9    499.22458    166.90795 
          32    502.91481    167.41472 
        32.1    498.63692    167.94851 
        32.2    497.36623    168.47706 
        32.3    491.71812    169.03251 
        32.4    494.41328    169.50366 
        32.5    504.16334     169.9237 
        32.6    501.15859    170.50181 
        32.7    502.79164    171.24088 
        32.8    489.87921    171.71228 
        32.9    495.57605    172.29165 
          33    508.48755    172.85502 
        33.1    504.33544    173.31726 
        33.2     502.8283    173.84537 
        33.3    498.54333    174.58526 
        33.4    502.21504    175.22056 
        33.5    501.29116    175.75574 
        33.6    490.47038    176.14737 
        33.7     499.7493    176.59615 
        33.8    504.58184    176.98682 
        33.9    498.99466    177.52302 
          34    494.01657    177.97122 
        34.1    496.13884    178.43731 
        34.2    503.28818    178.91883 
        34.3    497.89779    179.43673 
        34.4    494.80496      179.848 
        34.5    503.53774     180.4419 
        34.6    501.27727    180.97803 
        34.7    490.88776    181.34199 
        34.8     497.8844    181.88758 
        34.9    497.87333    182.48691 
          35    501.60425    183.01774 
        35.1    500.84704    183.45833 
        35.2    496.68446    184.24089 
        35.3    497.92585    184.74926 
        35.4    504.61639    185.22953 
        35.5    505.91513    185.63991 
        35.6    488.84455    186.17475 
        35.7    494.82531    186.61416 
        35.8    505.60127    187.17902 
        35.9    500.29117    187.68191 
          36    499.91192    188.07229 
        36.1    498.68017    188.68126 
        36.2    496.40572    189.31651 
        36.3    499.11813    189.81683 
        36.4    498.31351    190.30572 
        36.5    495.36162    190.84328 
        36.6    496.24394    191.27476 
        36.7    494.69055    191.70663 
        36.8    504.49092    192.21381 
        36.9    501.92737     192.7264 
          37    499.93819    193.20717 
        37.1    493.13297    193.68004 
        37.2    495.52033    194.24507 
        37.3    507.44081    194.82009 
        37.4    496.18474     195.2071 
        37.5     495.2284    195.64336 
        37.6    497.96327    196.12752 
        37.7    492.57393    196.80574 
        37.8    497.57772     197.4092 
        37.9    502.17561    197.87653 
          38    500.81263    198.32443 
        38.1    490.09618    198.79143 
        38.2    495.42625    199.23791 
        38.3    503.23029     199.8298 
        38.4    504.52858    200.40296 
        38.5    491.82639    200.95219 
        38.6    495.81184      201.355 
        38.7    502.71259     201.8583 
        38.8    500.70861    202.37434 
        38.9    500.43238    202.79699 
          39    492.57474    203.35039 
        39.1     500.1524    203.84363 
        39.2    499.59765    204.32466 
        39.3    495.85164    204.88083 
        39.4    500.30398    205.42525 
        39.5    497.19739    205.91095 
        39.6    494.30013    206.43191 
        39.7    500.97633    206.90776 
        39.8    509.06179    207.47806 
        39.9      498.103    207.97891 
          40    501.76004    208.46677 
        40.1    502.80521    209.06843 
        40.2    503.40579      209.526 
        40.3    504.59874     210.0867 
        40.4     500.2901    210.62055 
        40.5    502.22426    211.29046 
        40.6    498.04964    211.72965 
        40.7    493.81977    212.29506 
        40.8    501.89895    212.79088 
        40.9    497.48372    213.27225 
          41     500.1654    213.85703 
        41.1    499.13185    214.35691 
        41.2    499.60407    214.81774 
        41.3    504.29158    215.26034 
        41.4    500.57794    215.85503 
        41.5      491.222    216.31276 
        41.6    498.89323    216.80308 
        41.7    503.38645    217.34851 
        41.8    498.87216    217.86476 
        41.9     500.6271    218.37658 
          42    507.48841    218.97507 
        42.1    497.31718    219.45648 
        42.2    496.60607    219.89509 
        42.3    500.63275    220.35508 
        42.4    498.81203    220.91322 
        42.5    494.98862    221.40774 
        42.6    502.97489    221.93284 
        42.7    501.04705    222.52662 
        42.8    495.96249    223.11394 
        42.9    493.58951    223.61174 
          43    492.60721    224.05263 
        43.1    497.60259    224.67747 
        43.2    493.57551    225.17038 
        43.3    496.69126    225.73964 
        43.4    503.65552    226.24866 
        43.5     495.4701    226.75858 
        43.6    498.90638    227.39186 
        43.7    502.04951    227.99974 
        43.8     496.8502    228.64271 
        43.9    501.21897     229.1263 
          44     497.2111    229.58277 
        44.1    493.80819     230.0809 
        44.2    492.37863    230.63013 
        44.3    501.61324    231.13682 
        44.4    493.03901    231.67547 
        44.5    497.41764     232.1236 
        44.6    502.34256    232.64025 
        44.7    498.80439    233.25556 
        44.8    498.87581    233.77303 
        44.9    499.63423    234.25099 
          45     497.5179    234.73632 
        45.1    500.41182    235.16717 
        45.2    502.79666    235.56807 
        45.3    501.33515    236.03411 
        45.4    501.38595    236.44453 
        45.5    500.02698    237.07355 
        45.6    503.55838     237.8411 
        45.7    494.99473    238.35188 
        45.8    498.98296    238.83042 
        45.9    497.38835    239.42877 
          46    491.57053    239.86021 
        46.1    492.39022    240.41756 
        46.2    496.42851    240.87263 
        46.3    495.95479    241.43759 
        46.4    498.92683    242.07712 
        46.5    496.51917    242.72238 
        46.6     498.7408    243.17707 
        46.7    508.23335    243.67639 
        46.8    497.10987    244.16684 
        46.9    496.51966     244.6044 
          47    505.87502    245.06946 
        47.1     489.4059    245.57663 
        47.2    499.20109    246.13055 
        47.3     497.5258    246.69881 
        47.4    494.39825    247.10865 
        47.5    502.59164    247.56562 
        47.6    495.77216    247.99432 
        47.7    501.68961    248.51702 
        47.8    496.21941    249.13954 
        47.9    495.51179    249.55294 
          48    491.70374    249.96386 
        48.1    498.52142    250.49329 
        48.2    496.32159    251.03292 
        48.3    501.92385    251.52409 
        48.4    497.64254     252.0591 
        48.5     498.0594    252.70195 
        48.6    497.63132    253.31834 
        48.7    500.11246    253.82381 
        48.8    503.67492    254.48858 
        48.9    505.38338     254.9832 
          49    504.18055    255.50496 
        49.1    503.19298    256.12092 
        49.2    492.39535    256.62028 
        49.3    497.55117    257.10865 
        49.4     498.9789    257.52578 
        49.5    496.42004    258.11924 
        49.6    508.15935    258.56424 
        49.7    508.55311    259.06989 
        49.8    498.89497    259.52195 
        49.9     498.5796    259.97223 
          50    496.51516    260.57266 
Loop time of 133.221 on 16 procs for 50000 steps with 5000 atoms

Performance: 32.427 ns/day, 0.740 hours/ns, 375.317 timesteps/s
99.2% CPU use with 16 MPI tasks x no OpenMP threads

MPI task timing breakdown:
Section |  min time  |  avg time  |  max time  |%varavg| %total
---------------------------------------------------------------
Pair    | 109.11     | 112.38     | 118.99     |  21.3 | 84.35
Neigh   | 0          | 0          | 0          |   0.0 |  0.00
Comm    | 6.2793     | 11.487     | 13.957     |  55.1 |  8.62
Output  | 0.010544   | 0.013492   | 0.050958   |   8.3 |  0.01
Modify  | 0.55139    | 0.59369    | 0.65601    |   3.7 |  0.45
Other   |            | 8.749      |            |       |  6.57

Nlocal:    312.5 ave 326 max 306 min
Histogram: 5 2 1 1 3 1 0 1 1 1
Nghost:    1136.38 ave 1149 max 1120 min
Histogram: 1 0 1 4 1 3 0 1 2 3
Neighs:    0 ave 0 max 0 min
Histogram: 16 0 0 0 0 0 0 0 0 0
FullNghs:  10864.9 ave 11328 max 10601 min
Histogram: 3 3 2 1 3 0 1 1 1 1

Total # of neighbors = 173838
Ave neighs/atom = 34.7676
Neighbor list builds = 0
Dangerous builds = 0

write_data ${LOC2}/TC-EQ-STRUCTURE-5-5 #data file
write_data ../output/output-2//TC-EQ-STRUCTURE-5-5 
clear

####--------------------------------------------------------------------
####SIMULATION-4: RUN NVE AND APPLY MULLER-PLATHE TO GET THERMAL CONDUCTIVITY
####--------------------------------------------------------------------

log ${LOC2}/log-TC-prod-5-5  #save TD output to this file
log ../output/output-2//log-TC-prod-5-5  
