
units 		metal
dimension	3
boundary	p	p	p
atom_style	atomic

###READ ATOMS
read_data ${LOC2}/TC-EQ-STRUCTURE-5-20
read_data ../output/output-2//TC-EQ-STRUCTURE-5-20
  orthogonal box = (-1.10372 -4.41487 -1.10372) to (26.1037 104.415 26.1037)
  1 by 4 by 2 MPI processor grid
  reading atoms ...
  4000 atoms
  reading velocities ...
  4000 velocities

###load potential
pair_style sw
pair_coeff * * pot/Si.sw Si
Reading potential file pot/Si.sw with DATE: 2007-06-11
mass * 28.0855


####fix ID group-ID thermal/conductivity N edim Nbin keyword value ...
reset_timestep 0

fix 1 all thermal/conductivity ${swap_every} y ${TC_num_layers} swap ${num_swap}
fix 1 all thermal/conductivity 800 y ${TC_num_layers} swap ${num_swap}
fix 1 all thermal/conductivity 800 y 72 swap ${num_swap}
fix 1 all thermal/conductivity 800 y 72 swap 2

fix       2 all nve

#TEMPERATURE PROFILE
compute   KE all ke/atom
variable  temp1 atom c_KE/(1.5*0.00008617)
compute   layers all chunk/atom bin/1d y lower 2.0 #units reduced
fix 3 all ave/chunk 1 ${N_TC} ${N_TC} layers v_temp1 file ${LOC2}/TC-TEMP-PROFILE-5-20
fix 3 all ave/chunk 1 500000 ${N_TC} layers v_temp1 file ${LOC2}/TC-TEMP-PROFILE-5-20
fix 3 all ave/chunk 1 500000 500000 layers v_temp1 file ${LOC2}/TC-TEMP-PROFILE-5-20
fix 3 all ave/chunk 1 500000 500000 layers v_temp1 file ../output/output-2//TC-TEMP-PROFILE-5-20

thermo ${thermo_save}
thermo 800

variable A equal lx*lz
variable flux equal f_1/((time-0.000000000001)*v_A) #ADD -0.000001 to avoid division by zero
thermo_style custom time temp v_A f_1 v_flux

run ${N_TC}
run 500000
Neighbor list info ...
  1 neighbor list requests
  update every 1 steps, delay 10 steps, check yes
  max neighbors/atom: 2000, page size: 100000
  master list distance cutoff = 5.77118
  ghost atom cutoff = 5.77118
  binsize = 2.88559 -> bins = 10 38 10
Memory usage per processor = 2.67438 Mbytes
Time Temp A 1 flux 
           0    502.83459    740.24445            0           -0 
         0.8    503.93749    740.24445   0.51102308 0.00086292961 
         1.6     499.1644    740.24445   0.89177212 0.00075293718 
         2.4    513.26246    740.24445    1.4598045 0.00082169055 
         3.2    509.74769    740.24445    1.9144398 0.00080819579 
           4    502.86502    740.24445    2.4581595 0.00083018506 
         4.8    504.81068    740.24445    2.9339997 0.00082574065 
         5.6    517.16816    740.24445    3.4414765 0.00083019789 
         6.4    506.68952    740.24445    3.8082243 0.00080383587 
         7.2    506.00254    740.24445    4.3426657 0.00081479573 
           8    517.51427    740.24445    4.7430873 0.0008009326 
         8.8    519.91688    740.24445    5.1560495 0.00079151517 
         9.6    498.12441    740.24445    5.6162596 0.00079031602 
        10.4    503.27381    740.24445    6.1159002 0.00079442315 
        11.2     496.7951    740.24445    6.5528809 0.00079038574 
          12    510.33515    740.24445    6.9226564 0.00077932098 
        12.8    501.05169    740.24445    7.5249087 0.00079417481 
        13.6     504.6116    740.24445    7.9352092 0.00078821431 
        14.4    506.29657    740.24445    8.4212027 0.00079001706 
        15.2    505.00203    740.24445    8.9224086 0.00079298206 
          16    505.46541    740.24445    9.3149494 0.00078647578 
        16.8    510.84701    740.24445     9.693321 0.00077944981 
        17.6    509.61154    740.24445    10.065155 0.00077256072 
        18.4     510.0607    740.24445    10.538846 0.00077374897 
        19.2    506.02002    740.24445    10.964036 0.00077142564 
          20     514.4101    740.24445    11.423896 0.00077162997 
        20.8    507.65178    740.24445    11.978636 0.00077798076 
        21.6    507.22677    740.24445    12.302981 0.00076945181 
        22.4     505.7057    740.24445    12.765317 0.00076985407 
        23.2    506.45647    740.24445    13.011983 0.00075767045 
          24    504.90615    740.24445    13.528475 0.00076148689 
        24.8     517.7309    740.24445    13.978557 0.00076143968 
        25.6    505.81617    740.24445    14.376895 0.00075866488 
        26.4    508.54713    740.24445    14.798204 0.00075723368 
        27.2    505.01785    740.24445    15.127649 0.00075132419 
          28    518.20869    740.24445    15.839243 0.0007641898 
        28.8    514.53916    740.24445    16.242588 0.00076188177 
        29.6    506.43689    740.24445    16.832492 0.00076821282 
        30.4    504.94786    740.24445    17.304095 0.00076895361 
        31.2    505.67683    740.24445    17.776529 0.00076969243 
          32    512.41934    740.24445    18.256725 0.00077072197 
        32.8      501.251    740.24445    18.910169 0.00077883669 
        33.6    521.50959    740.24445    19.361283 0.00077843025 
        34.4    517.20284    740.24445    19.723741 0.0007745611 
        35.2    513.63359    740.24445    20.340364 0.0007806222 
          36    499.05795    740.24445    20.771927 0.00077946949 
        36.8    502.53269    740.24445    21.240545 0.00077972719 
        37.6    506.02584    740.24445    21.585442 0.00077552883 
        38.4      501.978    740.24445    21.994096 0.00077374835 
        39.2    523.58077    740.24445    22.515135 0.00077591354 
          40    509.31329    740.24445    23.010791 0.00077713487 
        40.8    500.49585    740.24445     23.37982 0.00077411565 
        41.6    499.70785    740.24445    23.804428 0.00077301737 
        42.4    509.45849    740.24445      24.7792 0.00078948932 
        43.2    505.76908    740.24445    25.406621 0.00079448921 
          44     517.8174    740.24445    25.902953 0.00079528253 
        44.8    511.10395    740.24445    26.434142 0.0007970986 
        45.6    509.10056    740.24445    26.954751 0.00079853752 
        46.4     508.8492    740.24445    27.306684 0.00079501592 
        47.2    512.99988    740.24445    27.722903 0.00079345362 
          48    505.43568    740.24445    28.097257 0.00079076516 
        48.8    503.73238    740.24445    28.644537 0.00079295185 
        49.6     508.4232    740.24445    29.125905 0.00079327286 
        50.4    510.60035    740.24445    29.902199 0.00080148875 
        51.2    504.32308    740.24445    30.276089 0.00079883052 
          52    511.57086    740.24445    30.762506 0.00079917743 
        52.8     510.5237    740.24445    31.024392 0.0007937691 
        53.6    502.06553    740.24445    31.438787  0.000792366 
        54.4    504.16926    740.24445    31.935953 0.0007930596 
        55.2    509.95097    740.24445    32.414822 0.0007932853 
          56    503.31453    740.24445    32.792777 0.00079107017 
        56.8    511.38513    740.24445    33.148506 0.00078838884 
        57.6     506.8477    740.24445    33.669293 0.00078965312 
        58.4    508.64019    740.24445    34.259597 0.00079249083 
        59.2    512.04522    740.24445      34.7697 0.00079342169 
          60    510.07912    740.24445    35.366755 0.00079628549 
        60.8    507.30244    740.24445    35.799159 0.00079541557 
        61.6    506.29774    740.24445    36.291449 0.00079588155 
        62.4    503.16051    740.24445    36.774887 0.00079614396 
        63.2    505.78761    740.24445    37.403113 0.00079949457 
          64    505.09672    740.24445    37.934962 0.00080072708 
        64.8    504.40103    740.24445    38.487542 0.00080236136 
        65.6    513.51767    740.24445    38.991469 0.00080295387 
        66.4     497.6099    740.24445     39.48601 0.00080334114 
        67.2    510.42544    740.24445     39.84015 0.00080089675 
          68    497.29746    740.24445    40.288565 0.00080038275 
        68.8    508.21752    740.24445    40.836058 0.00080182615 
        69.6    503.32194    740.24445    41.267197 0.00080097796 
        70.4    507.82362    740.24445    41.732964 0.00080081355 
        71.2    502.59952    740.24445    42.219413 0.00080104523 
          72    507.05382    740.24445    42.886799 0.0008046666 
        72.8    515.65683    740.24445    43.477825 0.00080679142 
        73.6    503.86897    740.24445    43.927134 0.00080626888 
        74.4    508.09028    740.24445    44.343181 0.00080515361 
        75.2    517.86873    740.24445    44.747671 0.00080385448 
          76    504.47428    740.24445    45.406815 0.00080710919 
        76.8    501.39256    740.24445    45.760351 0.00080492045 
        77.6    510.55522    740.24445    46.215134 0.00080453943 
        78.4    504.80187    740.24445    46.693894 0.00080457934 
        79.2    508.68537    740.24445    47.427686 0.00080896847 
          80    505.39885    740.24445    47.833835 0.00080773714 
        80.8    499.66481    740.24445     48.24803 0.00080666472 
        81.6    509.01275    740.24445    48.552675 0.0008037997 
        82.4    512.08564    740.24445    48.947676 0.00080247166 
        83.2    511.39719    740.24445    49.354391 0.00080135935 
          84    509.46777    740.24445    49.822085 0.00080124891 
        84.8    506.52075    740.24445    50.273968 0.00080088868 
        85.6    496.39122    740.24445    50.609209 0.00079869437 
        86.4    514.05711    740.24445    51.089133 0.0007988029 
        87.2    508.99221    740.24445    51.551239 0.00079863338 
          88    503.06499    740.24445    52.063019 0.00079922952 
        88.8    510.84167    740.24445    52.486613 0.00079847334 
        89.6    505.81571    740.24445    52.875104 0.00079720143 
        90.4    508.75341    740.24445    53.448819 0.00079871994 
        91.2    513.55756    740.24445    53.882492 0.00079813743 
          92    513.36045    740.24445    54.432092 0.00079926728 
        92.8    514.20548    740.24445    54.782281 0.00079747481 
        93.6    507.31532    740.24445    55.422798 0.0007999032 
        94.4    505.37113    740.24445    55.780619 0.00079824494 
        95.2    504.57412    740.24445    56.266559 0.00079843258 
          96    511.32242    740.24445    56.803185 0.00079933033 
        96.8    505.73483    740.24445    57.252049 0.00079898848 
        97.6     512.2509    740.24445    57.833841 0.00080049211 
        98.4    504.92819    740.24445    58.208017 0.00079912101 
        99.2    506.30655    740.24445    58.696121 0.00079932348 
         100    515.33018    740.24445    59.196391 0.00079968706 
       100.8     514.2451    740.24445    59.709302 0.00080021429 
       101.6    513.05254    740.24445     60.25829 0.00080121291 
       102.4    515.18898    740.24445    60.816531 0.00080231798 
       103.2    507.81348    740.24445    61.439618 0.00080425477 
         104    498.12051    740.24445    61.791286 0.00080263618 
       104.8    512.45803    740.24445    62.183537 0.00080156543 
       105.6    509.04259    740.24445    62.728477 0.00080246419 
       106.4    500.59995    740.24445    63.197968 0.00080239151 
       107.2    511.87659    740.24445    63.577956 0.00080119203 
         108    508.01779    740.24445    64.048642 0.00080114479 
       108.8    508.19125    740.24445    64.386281 0.00079944627 
       109.6    510.43488    740.24445    64.898392 0.00079992307 
       110.4    510.69582    740.24445    65.365239 0.00079983908 
       111.2    509.26092    740.24445    65.783416 0.00079916503 
         112      507.962    740.24445    66.327943 0.00080002461 
       112.8    510.36303    740.24445    66.811948 0.00080014717 
       113.6    507.09372    740.24445    67.324198 0.0008006039 
       114.4    507.05715    740.24445    67.782205 0.00080041369 
       115.2    510.26522    740.24445    68.388797 0.00080196853 
         116    510.07712    740.24445    68.870842 0.00080205148 
       116.8     501.7102    740.24445     69.27441 0.00080122562 
       117.6    505.47793    740.24445     69.68614 0.00080050477 
       118.4    510.90972    740.24445    70.273611 0.00080179881 
       119.2     504.5983    740.24445    70.708428 0.00080134544 
         120    505.95735    740.24445    71.125457 0.00080069785 
       120.8    505.86438    740.24445    71.640297 0.00080115267 
       121.6    505.68445    740.24445     72.27308 0.00080291178 
       122.4    509.01167    740.24445    72.845106 0.00080397733 
       123.2    511.10052    740.24445    73.362341 0.00080442824 
         124    509.58775    740.24445    73.888344 0.00080496887 
       124.8    501.03273    740.24445    74.260781 0.00080384029 
       125.6    500.65671    740.24445    74.684649 0.00080327924 
       126.4    511.23628    740.24445    75.045902 0.0008020561 
       127.2    512.17738    740.24445      75.5209 0.00080205635 
         128    501.59988    740.24445    75.917896 0.00080123337 
       128.8    506.36475    740.24445    76.350728 0.00080079649 
       129.6    515.12094    740.24445    76.919645 0.00080178349 
       130.4    510.70437    740.24445    77.476447 0.00080263287 
       131.2    505.43647    740.24445     78.06942 0.00080384434 
         132    505.02162    740.24445    78.481718 0.00080319206 
       132.8    506.87509    740.24445    78.944731 0.00080306355 
       133.6    510.38337    740.24445    79.468562 0.00080355153 
       134.4    500.02363    740.24445    79.914562 0.00080325141 
       135.2    510.45726    740.24445    80.342553 0.00080277489 
         136    515.22124    740.24445    80.737746 0.00080197818 
       136.8    499.84629    740.24445    81.267507 0.00080251966 
       137.6     505.3498    740.24445    81.679178 0.00080189548 
       138.4     502.7536    740.24445    82.117305 0.00080153675 
       139.2    512.84592    740.24445    82.616507 0.00080177485 
         140    509.53181    740.24445    82.932708 0.00080024441 
       140.8    508.06777    740.24445    83.359969 0.00079979692 
       141.6    510.52586    740.24445    83.908743 0.00080051376 
       142.4      501.377    740.24445    84.411096 0.00080078216 
       143.2    510.60548    740.24445     84.98606 0.00080173255 
         144    508.93987    740.24445    85.651325 0.00080351952 
       144.8     506.6926    740.24445    86.378019 0.00080585985 
       145.6    507.51543    740.24445    86.766453 0.00080503601 
       146.4    503.42918    740.24445    87.216872 0.00080479315 
       147.2    502.06458    740.24445    87.824365 0.00080599444 
         148    501.25289    740.24445    88.336813 0.00080631521 
       148.8    504.57018    740.24445    88.839873 0.00080654729 
       149.6     506.0477    740.24445    89.249453 0.00080593276 
       150.4    507.47594    740.24445    89.674651 0.00080546504 
       151.2    504.75261    740.24445    90.053951 0.0008045922 
         152    505.77922    740.24445    90.545649 0.00080472749 
       152.8    509.71517    740.24445    91.043247 0.00080491352 
       153.6    503.12084    740.24445    91.492885 0.00080467581 
       154.4    510.18888    740.24445    91.880598 0.00080389875 
       155.2    505.03892    740.24445     92.26989 0.00080314345 
         156    509.15213    740.24445    92.757197 0.00080324468 
       156.8    505.83318    740.24445    93.255726 0.00080344155 
       157.6    510.58546    740.24445     93.76988 0.00080377036 
       158.4    501.50902    740.24445    94.157605 0.0008030176 
       159.2    519.04988    740.24445     94.58338 0.00080259529 
         160    500.47969    740.24445     95.01767 0.00080224909 
       160.8    510.72877    740.24445    95.497004 0.00080228476 
       161.6    514.02483    740.24445    95.963431 0.00080221218 
       162.4    501.62743    740.24445     96.36168 0.00080157318 
       163.2    506.01512    740.24445    97.161709 0.00080426622 
         164    508.16697    740.24445     97.54148 0.00080347124 
       164.8    511.49846    740.24445    98.100883 0.00080415645 
       165.6    504.59126    740.24445    98.534988 0.00080381291 
       166.4    507.79501    740.24445     98.91814 0.00080305901 
       167.2    514.31689    740.24445    99.404191 0.00080314371 
         168    509.61227    740.24445     99.79651 0.00080247389 
       168.8    511.70979    740.24445    100.38869 0.00080340993 
       169.6    503.89422    740.24445    100.96542  0.000804214 
       170.4     510.3781    740.24445     101.4414 0.0008042119 
       171.2    509.32178    740.24445     102.0182 0.00080500531 
         172    497.80629    740.24445    102.50727 0.00080510231 
       172.8    509.53903    740.24445    102.95621 0.00080488469 
       173.6    514.66128    740.24445    103.59644 0.0008061576 
       174.4     514.2961    740.24445    104.12209 0.00080653129 
       175.2    507.98483    740.24445    104.71697 0.0008074354 
         176    512.96503    740.24445    105.21071 0.00080755504 
       176.8    508.82871    740.24445    105.79469 0.00080836306 
       177.6    515.54167    740.24445    106.21064 0.00080788569 
       178.4     511.3013    740.24445    106.63043 0.00080744169 
       179.2    506.65305    740.24445    107.19392 0.00080808489 
         180    501.53875    740.24445    107.83603 0.00080931248 
       180.8    501.56055    740.24445    108.46159 0.0008104055 
       181.6    506.60722    740.24445    108.90843 0.00081015944 
       182.4    510.81822    740.24445    109.52684 0.00081118622 
       183.2    507.17041    740.24445    109.90196 0.00081041003 
         184    516.23715    740.24445    110.37009 0.00081032349 
       184.8    503.90947    740.24445     110.7558 0.00080963515 
       185.6    501.47084    740.24445    111.23792 0.00080965452 
       186.4    511.36323    740.24445    111.62077 0.00080895423 
       187.2    513.92671    740.24445     112.0252 0.00080841569 
         188    505.82302    740.24445    112.37241 0.00080747055 
       188.8    512.77542    740.24445    112.70957 0.00080646149 
       189.6    514.13128    740.24445    113.21175 0.00080663679 
       190.4    514.28308    740.24445     113.7172 0.00080683375 
       191.2    505.15987    740.24445    114.32202 0.00080773115 
         192    507.32228    740.24445    114.81212 0.00080781395 
       192.8    508.94904    740.24445     115.3182 0.00080800798 
       193.6    508.43265    740.24445    115.66903 0.00080711718 
       194.4    508.88978    740.24445    116.32799 0.0008083749 
       195.2    508.04742    740.24445    116.85439 0.00080870485 
         196    504.03079    740.24445     117.3191  0.000808607 
       196.8    499.30924    740.24445    117.83865 0.00080888633 
       197.6     512.2793    740.24445     118.3948 0.00080941365 
       198.4    503.15602    740.24445    118.97742 0.00081011695 
       199.2    513.75636    740.24445    119.57171 0.00081089376 
         200    505.10474    740.24445    120.01125 0.00081061904 
       200.8    505.42015    740.24445    120.44196 0.00081028716 
       201.6    513.39037    740.24445      121.164 0.00081191002 
       202.4    504.69836    740.24445    121.73866 0.00081253642 
       203.2     507.6486    740.24445    122.13487 0.00081197154 
         204     514.0795    740.24445     122.6239 0.00081202576 
       204.8    513.03713    740.24445    123.28635 0.00081322342 
       205.6    513.72781    740.24445    123.81792 0.00081355182 
       206.4    509.13487    740.24445    124.35717 0.00081392801 
       207.2    515.87069    740.24445    124.73354 0.00081323924 
         208    508.39897    740.24445    125.24211 0.00081341448 
       208.8    504.62293    740.24445    125.77872 0.0008137697 
       209.6    498.68332    740.24445    126.10486 0.00081276573 
       210.4      511.399    740.24445    126.70057 0.00081350022 
       211.2    509.95999    740.24445    127.27253 0.00081407723 
         212    512.48726    740.24445     127.7377 0.00081396941 
       212.8    511.07773    740.24445    128.41441 0.0008152053 
       213.6    513.49376    740.24445     128.8547 0.00081493665 
       214.4    506.63759    740.24445      129.275 0.00081454409 
       215.2    507.23454    740.24445    129.79823 0.00081480059 
         216    508.33471    740.24445    130.31675 0.00081502578 
       216.8     504.8344    740.24445    130.73472 0.00081462272 
       217.6    508.48644    740.24445    131.07177 0.0008137202 
       218.4     510.0344    740.24445    131.43419 0.0008129813 
       219.2    508.24338    740.24445    131.90249 0.00081290029 
         220    510.63537    740.24445    132.38514 0.00081290797 
       220.8    507.90468    740.24445    132.83185 0.00081269577 
       221.6    505.19473    740.24445    133.31212 0.00081268962 
       222.4    514.14059    740.24445    133.85142 0.00081304209 
       223.2    503.60672    740.24445    134.28225 0.00081273553 
         224    504.43743    740.24445    134.63846 0.00081198117 
       224.8    508.34699    740.24445     135.1022 0.00081187831 
       225.6    507.03484    740.24445    135.55279 0.00081169752 
       226.4    509.61898    740.24445    135.91251 0.00081097574 
       227.2    513.00413    740.24445    136.25622 0.00081016381 
         228    505.97533    740.24445     136.6778  0.000809819 
       228.8    523.04664    740.24445    137.05679 0.00080922516 
       229.6    507.38502    740.24445    137.42128 0.00080855013 
       230.4    498.61114    740.24445    137.88923 0.00080848638 
       231.2    513.06012    740.24445     138.4905 0.0008092021 
         232    515.62612    740.24445    138.88861 0.00080872988 
       232.8    506.23767    740.24445    139.35226 0.00080864123 
       233.6    515.88213    740.24445     139.9188 0.00080914819 
       234.4     512.6629    740.24445     140.3366 0.0008087945 
       235.2    513.08843    740.24445     140.7992 0.00080870048 
         236    505.11027    740.24445     141.1918 0.00080820647 
       236.8    507.51403    740.24445    141.77353 0.00080879468 
       237.6    505.01563    740.24445    142.26104 0.00080884327 
       238.4    509.21046    740.24445    142.70435 0.00080864109 
       239.2    504.33524    740.24445    143.13285 0.00080835662 
         240    504.78846    740.24445    143.57078 0.00080812707 
       240.8    505.32704    740.24445     144.0037  0.000807871 
       241.6    501.85187    740.24445    144.55124 0.00080825749 
       242.4    504.32006    740.24445    144.97836 0.00080797032 
       243.2    500.39956    740.24445    145.44913 0.00080792751 
         244    506.29955    740.24445    145.86848 0.0008076003 
       244.8    512.40591    740.24445    146.41946 0.00080800163 
       245.6    506.39158    740.24445    146.75184 0.00080719792 
       246.4     510.7856    740.24445    147.14611 0.00080673873 
       247.2    510.74206    740.24445    147.76316 0.00080750001 
         248    507.97036    740.24445    148.12862 0.00080688592 
       248.8    508.56562    740.24445    148.63278 0.00080702887 
       249.6    508.01607    740.24445    148.91787 0.0008059852 
       250.4    503.43373    740.24445    149.40638 0.00080604567 
       251.2    515.40544    740.24445    149.87707 0.00080600993 
         252    504.49543    740.24445    150.35338 0.00080600457 
       252.8    506.81021    740.24445    150.78106 0.00080573932 
       253.6    506.56955    740.24445    151.35194 0.00080623858 
       254.4     505.3304    740.24445    151.76418 0.00080589231 
       255.2    510.94826    740.24445    152.15762 0.00080544869 
         256    509.13723    740.24445    152.51343 0.00080480925 
       256.8     509.1705    740.24445    152.93723 0.00080453149 
       257.6    506.09068    740.24445    153.28341 0.00080384837 
       258.4    506.05643    740.24445    153.89719 0.00080456851 
       259.2     505.0391    740.24445     154.3664 0.00080453069 
         260    503.59046    740.24445    154.88062 0.00080472701 
       260.8    510.21112    740.24445    155.40276 0.00080496313 
       261.6    504.60139    740.24445    155.85841 0.00080485444 
       262.4    499.29622    740.24445    156.13554 0.00080382733 
       263.2    510.22755    740.24445    156.63293 0.00080393701 
         264    503.76002    740.24445    157.09471 0.00080386379 
       264.8    508.84706    740.24445    157.54083 0.00080371116 
       265.6    507.05807    740.24445    158.06477 0.0008039552 
       266.4    506.52579    740.24445    158.50364 0.00080376645 
       267.2    511.46612    740.24445    158.95559 0.00080364488 
         268    510.20862    740.24445    159.39032 0.00080343731 
       268.8    514.38689    740.24445    159.77733 0.00080299108 
       269.6    505.58434    740.24445    160.42907 0.00080387404 
       270.4    506.55225    740.24445    160.75736 0.00080313588 
       271.2    509.01982    740.24445    161.27726 0.00080335648 
         272    503.34042    740.24445    161.82256 0.0008037019 
       272.8    512.40853    740.24445    162.27709 0.00080359586 
       273.6    504.17093    740.24445     162.7121 0.00080339402 
       274.4     506.9424    740.24445    163.40276 0.00080445199 
       275.2    506.27876    740.24445    163.83438 0.00080423221 
         276    505.44108    740.24445    164.30295 0.00080419455 
       276.8    510.94911    740.24445    164.80162 0.00080430399 
       277.6    506.19209    740.24445    165.27089 0.00080426976 
       278.4     505.7312    740.24445    165.85861 0.00080481047 
       279.2    506.19404    740.24445    166.24402 0.00080436923 
         280     504.6542    740.24445    166.70613 0.00080430056 
       280.8    509.65508    740.24445      167.111 0.00080395692 
       281.6    498.65958    740.24445    167.55367 0.00080379653 
       282.4    500.54967    740.24445    167.99237 0.00080361807 
       283.2    512.28225    740.24445    168.45797 0.00080356897 
         284    511.94292    740.24445    168.89814 0.00080339917 
       284.8    511.13275    740.24445    169.35418 0.00080330557 
       285.6    507.26011    740.24445    169.92412 0.00080375127 
       286.4    505.58165    740.24445    170.36747 0.00080359734 
       287.2    505.32894    740.24445    170.76579 0.0008032325 
         288    495.58296    740.24445    171.20906 0.00080308053 
       288.8    511.61106    740.24445    171.74702 0.00080337233 
       289.6    514.95781    740.24445     172.1387 0.00080298014 
       290.4    504.51478    740.24445    172.58196 0.00080283008 
       291.2    508.58933    740.24445    172.97786 0.00080246111 
         292    502.87414    740.24445    173.40873 0.00080225594 
       292.8    507.11683    740.24445    173.71704 0.00080148645 
       293.6    506.29681    740.24445    174.23773 0.00080169835 
       294.4    510.25883    740.24445    174.64856 0.00080140497 
       295.2    511.46154    740.24445     174.9853 0.00080077419 
         296    502.79374    740.24445    175.42682 0.00080062496 
       296.8    510.01682    740.24445     175.9876 0.00080101938 
       297.6    508.52719    740.24445    176.29335 0.00080025398 
       298.4    503.65838    740.24445    176.72232 0.00080005056 
       299.2    504.13283    740.24445    177.12258 0.00079971855 
         300    510.92704    740.24445    177.58659 0.00079967545 
       300.8    504.59661    740.24445    178.03808 0.00079957631 
       301.6     518.3294    740.24445    178.44569 0.00079928112 
       302.4    508.64774    740.24445    178.89766 0.0007991857 
       303.2    507.97301    740.24445    179.22839 0.00079855059 
         304    504.75986    740.24445    179.78299 0.00079891367 
       304.8    504.44075    740.24445     180.2886 0.0007990577 
       305.6    504.52067    740.24445     180.6294 0.00079847245 
       306.4    508.12274    740.24445    181.08401 0.00079839203 
       307.2    502.81931    740.24445     181.4795 0.00079805203 
         308    508.52724    740.24445    181.89124 0.00079778506 
       308.8    513.47005    740.24445    182.36673 0.00079779841 
       309.6    505.01825    740.24445    182.93021 0.00079819559 
       310.4    501.91324    740.24445    183.42925 0.00079831029 
       311.2    505.65158    740.24445    184.01693 0.00079880914 
         312    510.02893    740.24445     184.4677 0.0007987127 
       312.8    506.36814    740.24445    184.86429 0.00079838272 
       313.6    507.64902    740.24445    185.16873 0.00079765745 
       314.4    507.62992    740.24445    185.65387 0.00079771235 
       315.2    512.75538    740.24445    186.14394 0.00079778808 
         316    507.24752    740.24445    186.52147 0.0007973823 
       316.8     508.4215    740.24445    186.99378 0.00079738271 
       317.6    518.22728    740.24445    187.45496 0.00079733583 
       318.4    509.76044    740.24445    187.78996 0.00079675381 
       319.2    503.95854    740.24445    188.22882 0.00079661427 
         320    508.70059    740.24445    188.83858 0.00079719689 
       320.8    497.25237    740.24445    189.34523 0.00079734238 
       321.6    509.66474    740.24445    190.02079 0.0007981967 
       322.4    514.40966    740.24445    190.50822 0.00079825843 
       323.2      508.868    740.24445    190.82805 0.00079761938 
         324    512.86882    740.24445    191.33862 0.00079777876 
       324.8    507.37337    740.24445     191.8152 0.00079779596 
       325.6    507.10763    740.24445    192.30003 0.00079784734 
       326.4    508.30517    740.24445    192.77638 0.00079786335 
       327.2    506.35207    740.24445    193.40641 0.00079851377 
         328    501.58168    740.24445    193.81439 0.00079824647 
       328.8    502.73965    740.24445    194.22268 0.00079798178 
       329.6    505.37931    740.24445    194.72074 0.0007980863 
       330.4    503.61611    740.24445     195.0953 0.00079768533 
       331.2    505.18866    740.24445    195.58894 0.00079777203 
         332    514.35865    740.24445    195.96102 0.00079736366 
       332.8    507.72082    740.24445    196.46815 0.00079750549 
       333.6    505.86521    740.24445    196.80975 0.00079697629 
       334.4    503.04731    740.24445    197.26529 0.00079690994 
       335.2    513.30821    740.24445    197.73123 0.00079688582 
         336    509.40346    740.24445    198.18358 0.00079680717 
       336.8    514.48957    740.24445    198.72333 0.00079707944 
       337.6    499.81478    740.24445    199.10665 0.00079672448 
       338.4    508.08874    740.24445    199.60437 0.00079682789 
       339.2    512.20331    740.24445    200.07731 0.00079683211 
         340    512.21859    740.24445    200.52545 0.00079673778 
       340.8    500.60764    740.24445     200.9772 0.00079665822 
       341.6    504.36692    740.24445    201.36004 0.00079630653 
       342.4    503.98573    740.24445    201.74297 0.00079595678 
       343.2    508.69651    740.24445    202.20885 0.00079593523 
         344    506.75865    740.24445     202.6465 0.00079580289 
       344.8     504.8612    740.24445    202.96533 0.00079520564 
       345.6    507.44117    740.24445     203.3899 0.00079502445 
       346.4    504.10863    740.24445     203.8671 0.00079504938 
       347.2    507.53741    740.24445     204.3206 0.00079498197 
         348    513.74145    740.24445    204.65833 0.00079446545 
       348.8    499.17848    740.24445     205.0311 0.00079408703 
       349.6    501.78737    740.24445    205.47124 0.00079397068 
       350.4    501.91783    740.24445    205.95259 0.00079401371 
       351.2    507.15418    740.24445    206.39535 0.00079390813 
         352    520.42126    740.24445    206.96194 0.00079427822 
       352.8    514.40181    740.24445    207.58007 0.00079484402 
       353.6    502.00236    740.24445    207.95832 0.00079449083 
       354.4    510.98244    740.24445    208.34018 0.00079415296 
       355.2      505.209    740.24445    208.78845 0.00079406919 
         356    512.21243    740.24445    209.25959 0.0007940726 
       356.8    503.54932    740.24445    209.71556 0.00079401856 
       357.6    510.64246    740.24445    210.27903 0.00079437083 
       358.4     515.6196    740.24445    210.76956 0.00079444662 
       359.2    506.04681    740.24445    211.19967 0.00079429486 
         360    511.87333    740.24445    211.66968 0.00079429348 
       360.8    508.30035    740.24445    212.09967 0.00079414225 
       361.6    500.73852    740.24445    212.51053 0.00079392025 
       362.4    499.13686    740.24445    212.90179 0.00079362612 
       363.2    502.42671    740.24445    213.41587 0.00079379017 
         364    507.82532    740.24445    213.83195 0.00079358975 
       364.8    500.32989    740.24445      214.266 0.00079345678 
       365.6    511.36558    740.24445    214.92791 0.00079416634 
       366.4    502.91837    740.24445    215.45175 0.00079436372 
       367.2    513.06172    740.24445    215.85569 0.00079411913 
         368    506.45955    740.24445    216.32164 0.00079410328 
       368.8    511.93234    740.24445    216.87021 0.00079439009 
       369.6    508.26602    740.24445    217.41033 0.00079464482 
       370.4    511.79572    740.24445     217.8879 0.00079467029 
       371.2    509.58233    740.24445    218.38137 0.00079475352 
         372    507.74046    740.24445    218.71359 0.00079425082 
       372.8    511.44683    740.24445    218.98955 0.00079354639 
       373.6    503.29455    740.24445    219.42353 0.00079341641 
       374.4    513.41757    740.24445    219.79305 0.00079305436 
       375.2    507.47632    740.24445    220.18408 0.00079277129 
         376    513.93072    740.24445    220.75633 0.00079314056 
       376.8    496.84666    740.24445     221.0673 0.0007925715 
       377.6    502.79666    740.24445     221.4456 0.00079224574 
       378.4    514.57853    740.24445    221.78786 0.00079179267 
       379.2    511.83438    740.24445    222.28588 0.00079189642 
         380    503.76627    740.24445    222.69607 0.0007916875 
       380.8    516.21348    740.24445    223.16935 0.00079170328 
       381.6    513.42078    740.24445    223.64554 0.0007917293 
       382.4    506.45094    740.24445    224.05083 0.00079150472 
       383.2     507.1548    740.24445    224.37553 0.00079099699 
         384    508.69028    740.24445    224.85137 0.00079102308 
       384.8    514.22687    740.24445    225.34155 0.00079109941 
       385.6    509.04273    740.24445    225.79867 0.00079105958 
       386.4    502.85043    740.24445    226.19687 0.00079081395 
       387.2    513.26823    740.24445    226.79696 0.00079127367 
         388    501.16031    740.24445    227.29583 0.00079137911 
       388.8    512.23874    740.24445    227.90271 0.0007918594 
       389.6     504.7168    740.24445    228.31534 0.00079166415 
       390.4    503.51005    740.24445     228.8026 0.00079172797 
       391.2    508.03631    740.24445    229.14958 0.00079130708 
         392    501.87117    740.24445    229.65738 0.00079144215 
       392.8    514.68197    740.24445     230.0086 0.00079103818 
       393.6    503.73436    740.24445    230.45604 0.00079096607 
       394.4    510.00618    740.24445    230.94414 0.00079103349 
       395.2    513.74737    740.24445    231.34847 0.00079081433 
         396    508.55619    740.24445    231.73869 0.00079054793 
       396.8    505.18892    740.24445    232.25916  0.000790726 
       397.6    509.78367    740.24445    232.70575 0.00079065237 
       398.4    504.41355    740.24445    233.23646 0.00079086427 
       399.2     500.6933    740.24445     233.6593 0.00079071025 
         400    505.76627    740.24445    234.21465 0.0007910044 
       400.8    499.69559    740.24445    234.67219 0.00079096771 
       401.6    506.51677    740.24445    235.12866 0.00079092755 
       402.4    516.02138    740.24445     235.5865 0.00079089215 
       403.2    508.11288    740.24445    236.14693 0.00079120061 
         404    510.73665    740.24445    236.50465 0.00079083004 
       404.8    501.85504    740.24445    236.97162 0.00079082551 
       405.6    509.46215    740.24445    237.39477 0.00079067505 
       406.4     509.5117    740.24445    237.86678 0.00079068762 
       407.2    501.77729    740.24445    238.16896 0.00079013669 
         408    508.47284    740.24445    238.60429 0.00079002879 
       408.8    508.18135    740.24445    239.13417 0.00079023379 
       409.6    507.56349    740.24445    239.62187 0.00079029884 
       410.4    509.47224    740.24445    240.02804 0.00079009528 
       411.2    512.77818    740.24445    240.37065 0.00078968371 
         412    509.82344    740.24445     240.7308 0.00078933124 
       412.8    511.52913    740.24445    241.19996 0.00078933684 
       413.6    510.50213    740.24445    241.69994 0.00078944313 
       414.4     499.6575    740.24445    242.07698 0.00078914822 
       415.2    505.42506    740.24445    242.62306 0.00078940445 
         416    512.61344    740.24445    242.98503 0.00078906183 
       416.8    508.17251    740.24445    243.32413 0.00078864638 
       417.6    506.80674    740.24445    243.87574 0.00078891997 
       418.4    501.84404    740.24445    244.39639 0.00078909257 
       419.2     508.0685    740.24445    244.85976 0.00078907992 
         420    507.62706    740.24445    245.23844 0.00078879491 
       420.8    512.04761    740.24445    245.70956 0.00078880773 
       421.6    505.63825    740.24445    246.11971 0.00078862516 
       422.4     512.6397    740.24445    246.45349 0.00078819905 
       423.2    507.08063    740.24445    246.88772 0.00078809519 
         424    503.51237    740.24445    247.30931 0.00078795142 
       424.8    507.58909    740.24445    247.66748 0.00078760655 
       425.6    506.27072    740.24445    248.05688 0.00078736208 
       426.4    502.22227    740.24445    248.48298 0.00078723482 
       427.2      507.828    740.24445    249.03213 0.00078749712 
         428    515.60987    740.24445    249.60714 0.0007878401 
       428.8    501.34684    740.24445    250.09998 0.00078792289 
       429.6    512.08745    740.24445    250.58255 0.0007879731 
       430.4    499.77804    740.24445    250.97951 0.00078775441 
       431.2    507.26962    740.24445    251.40426 0.00078762361 
         432    507.77071    740.24445    251.84906 0.00078755597 
       432.8    507.57768    740.24445    252.39532 0.00078780528 
       433.6     506.2559    740.24445    252.90747 0.00078794741 
       434.4      504.731    740.24445    253.49814 0.00078833318 
       435.2    510.34334    740.24445     254.0274 0.00078852689 
         436     512.3716    740.24445    254.59349 0.00078883403 
       436.8    503.85976    740.24445    255.10427 0.00078896899 
       437.6    501.88251    740.24445    255.53355 0.00078885185 
       438.4    505.48571    740.24445    255.96756 0.00078874972 
       439.2    514.47427    740.24445    256.41811 0.00078869884 
         440    512.76689    740.24445    256.82623 0.00078851787 
       440.8    511.61732    740.24445    257.31885 0.00078859652 
       441.6    510.93449    740.24445    257.92676 0.00078902756 
       442.4    508.54528    740.24445    258.49557 0.00078933765 
       443.2    509.38122    740.24445    259.04587 0.00078959023 
         444    510.76463    740.24445    259.52168 0.00078961523 
       444.8    509.67935    740.24445    259.90215 0.00078935059 
       445.6    496.59987    740.24445    260.34383 0.00078927247 
       446.4    502.82972    740.24445     260.7367 0.00078904691 
       447.2    508.05478    740.24445    261.30086 0.00078933959 
         448    507.40688    740.24445    261.82961 0.00078952446 
       448.8    507.39203    740.24445    262.30146 0.0007895374 
       449.6    510.62377    740.24445    262.71781 0.00078938351 
       450.4    512.35078    740.24445    263.20441 0.0007894409 
       451.2    506.88317    740.24445    263.54579 0.00078906327 
         452    510.49967    740.24445    263.92561 0.00078880188 
       452.8    510.07491    740.24445    264.36336 0.00078871425 
       453.6    505.62697    740.24445     264.7759 0.00078855183 
       454.4    511.14123    740.24445     265.2352 0.00078852901 
       455.2    513.07092    740.24445     265.8132 0.00078885853 
         456    500.84074    740.24445    266.13547 0.00078842931 
       456.8     505.2317    740.24445    266.53717 0.00078823647 
       457.6    508.16127    740.24445    267.09834 0.00078851511 
       458.4    509.13321    740.24445     267.6087  0.000788643 
       459.2    508.31365    740.24445    268.10478 0.00078872848 
         460    507.45647    740.24445    268.66929 0.0007890146 
       460.8    508.34556    740.24445    269.23035 0.0007892896 
       461.6    508.86956    740.24445    269.66354 0.00078918946 
       462.4    511.47385    740.24445    270.14271 0.00078922396 
       463.2    502.26505    740.24445    270.53753 0.00078901236 
         464    509.92753    740.24445    271.12371 0.00078935862 
       464.8    507.05321    740.24445    271.47465 0.00078901998 
       465.6     508.2947    740.24445    271.93064 0.00078898731 
       466.4    506.21268    740.24445     272.4961 0.0007892718 
       467.2    505.28445    740.24445    272.91558 0.00078913323 
         468    507.19862    740.24445     273.5218 0.00078953418 
       468.8    507.81062    740.24445    273.91316 0.0007893146 
       469.6    504.50073    740.24445    274.45041 0.00078951545 
       470.4    510.95628    740.24445    274.99284 0.00078973052 
       471.2    508.01158    740.24445    275.51284 0.00078988053 
         472    498.21168    740.24445    275.90372 0.00078966048 
       472.8    504.82108    740.24445    276.50544 0.00079004358 
       473.6    499.77903    740.24445    276.98909 0.00079008861 
       474.4    503.64188    740.24445    277.49322 0.00079019183 
       475.2    506.90195    740.24445    277.82647 0.00078980892 
         476    503.53857    740.24445    278.18992 0.00078951297 
       476.8    509.25435    740.24445    278.61995 0.00078940669 
       477.6    499.59986    740.24445     278.9785 0.00078909858 
       478.4    498.30462    740.24445    279.40848 0.00078899318 
       479.2    504.84571    740.24445      279.967 0.00078925052 
         480    510.93157    740.24445    280.32047 0.00078892989 
       480.8    516.16032    740.24445    280.72821 0.00078876283 
       481.6    508.56147    740.24445    281.13301 0.00078858807 
       482.4    505.70778    740.24445    281.63961 0.00078869898 
       483.2    511.38718    740.24445    282.19813 0.00078895466 
         484    505.68522    740.24445    282.67921 0.00078899336 
       484.8    512.39869    740.24445    283.03522 0.00078868342 
       485.6    504.88288    740.24445    283.42226 0.00078846082 
       486.4    504.31863    740.24445    283.89203 0.00078846874 
       487.2     511.4017    740.24445    284.38857 0.00078855083 
         488    505.19997    740.24445    284.86375 0.00078857356 
       488.8    506.87064    740.24445     285.2539 0.00078836117 
       489.6    504.41896    740.24445    285.63207 0.00078811645 
       490.4    507.97612    740.24445    285.93421 0.00078766309 
       491.2    501.39753    740.24445    286.26218 0.00078728224 
         492    506.68428    740.24445    286.63331 0.00078702112 
       492.8    509.62796    740.24445    287.22904 0.00078737656 
       493.6    505.63667    740.24445    287.62765 0.00078719137 
       494.4    504.26751    740.24445    287.95996 0.00078682559 
       495.2    508.17224    740.24445    288.32204 0.00078654224 
         496     516.1724    740.24445    288.85124 0.00078671496 
       496.8    504.42311    740.24445    289.59875 0.00078748073 
       497.6    506.13335    740.24445    290.17792 0.00078778705 
       498.4    507.27198    740.24445    290.56034 0.00078755908 
       499.2    505.43412    740.24445     291.0924 0.0007877368 
         500    514.62077    740.24445    291.48442 0.00078753557 
Loop time of 1860.62 on 8 procs for 500000 steps with 4000 atoms

Performance: 23.218 ns/day, 1.034 hours/ns, 268.728 timesteps/s
98.1% CPU use with 8 MPI tasks x no OpenMP threads

MPI task timing breakdown:
Section |  min time  |  avg time  |  max time  |%varavg| %total
---------------------------------------------------------------
Pair    | 1405.9     | 1425.3     | 1453.8     |  37.3 | 76.60
Neigh   | 0          | 0          | 0          |   0.0 |  0.00
Comm    | 295.26     | 317.71     | 343.81     |  86.4 | 17.08
Output  | 0.06508    | 0.087417   | 0.16927    |  10.6 |  0.00
Modify  | 16.625     | 16.844     | 17.003     |   3.4 |  0.91
Other   |            | 100.7      |            |       |  5.41

Nlocal:    500 ave 507 max 488 min
Histogram: 1 0 0 1 0 2 1 0 0 3
Nghost:    1507 ave 1519 max 1500 min
Histogram: 3 0 0 1 2 0 1 0 0 1
Neighs:    0 ave 0 max 0 min
Histogram: 8 0 0 0 0 0 0 0 0 0
FullNghs:  17410.5 ave 17678 max 16967 min
Histogram: 1 0 0 0 2 1 0 1 1 2

Total # of neighbors = 139284
Ave neighs/atom = 34.821
Neighbor list builds = 0
Dangerous builds = 0

print ${flux} file ${LOC2}/flux-5-20.dat
print 0.000787535565522821 file ${LOC2}/flux-5-20.dat
print 0.000787535565522821 file ../output/output-2//flux-5-20.dat
0.000787535565522821


####-------------------SOME INFO ON VARIOUS FIXES---------------------------


####write_data snap/data.${N_steps}
#####dump dump1 all custom ${snap_save} snap/snap.*.lammps id type x y z


##### CONSTRUCT A TEMPERATURE PROFILE
##### THESE BINS ARE NOT RELATED TO thermal/conductivity Bins
#####  bin/1d args = dim origin delta
#####    dim = x or y or z
#####    origin = lower or center or upper or coordinate value (distance units)
#####    delta = thickness of spatial bins in dim (distance units)



#####fix ID group-ID ave/chunk Nevery Nrepeat Nfreq chunkID value1 value2 ... keyword args ...
#####ID, group-ID are documented in fix command
#####ave/chunk = style name of this fix command
#####Nevery = use input values every this many timesteps
#####Nrepeat = # of times to use input values for calculating averages
#####Nfreq = calculate averages every this many timesteps
#####chunkID = ID of compute chunk/atom command
#####one or more input values can be listed
#####value = vx, vy, vz, fx, fy, fz, density/mass, density/number, temp, c_ID, c_ID[I], f_ID, f_ID[I], v_name

#####For example, if Nevery=2, Nrepeat=6, and Nfreq=100, then values on timesteps 90,92,94,96,98,100 will be used to compute the final aver
####age on timestep 100. Similarly for timesteps 190,192,194,196,198,200 on timestep 200, etc. If Nrepeat=1 and Nfreq = 100, then no time a
####veraging is done; values are simply generated on timesteps 100,200,etc.





#####fix ID group-ID thermal/conductivity N edim Nbin keyword value ...
#####ID, group-ID are documented in fix command
#####thermal/conductivity = style name of this fix command
#####N = perform kinetic energy exchange every N steps
#####edim = x or y or z = direction of kinetic energy transfer
#####Nbin = # of layers in edim direction (must be even number)
#####zero or more keyword/value pairs may be appended
#####keyword = swap
#####swap value = Nswap = number of swaps to perform every N steps


Total wall time: 0:32:57
