
units 		metal
dimension	3
boundary	p	p	p
atom_style	atomic

###READ ATOMS
read_data ${LOC2}/TC-EQ-STRUCTURE-5-5
read_data ../output/output-2//TC-EQ-STRUCTURE-5-5
  orthogonal box = (-1.10372 -5.51858 -1.10372) to (26.1037 130.519 26.1037)
  1 by 8 by 2 MPI processor grid
  reading atoms ...
  5000 atoms
  reading velocities ...
  5000 velocities

###load potential
pair_style sw
pair_coeff * * pot/Si.sw Si
Reading potential file pot/Si.sw with DATE: 2007-06-11
mass * 28.0855


####fix ID group-ID thermal/conductivity N edim Nbin keyword value ...
reset_timestep 0

fix 1 all thermal/conductivity ${swap_every} y ${TC_num_layers} swap ${num_swap}
fix 1 all thermal/conductivity 100 y ${TC_num_layers} swap ${num_swap}
fix 1 all thermal/conductivity 100 y 18 swap ${num_swap}
fix 1 all thermal/conductivity 100 y 18 swap 2

fix       2 all nve

#TEMPERATURE PROFILE
compute   KE all ke/atom
variable  temp1 atom c_KE/(1.5*0.00008617)
compute   layers all chunk/atom bin/1d y lower 2.0 #units reduced
fix 3 all ave/chunk 1 ${N_TC} ${N_TC} layers v_temp1 file ${LOC2}/TC-TEMP-PROFILE-5-5
fix 3 all ave/chunk 1 200000 ${N_TC} layers v_temp1 file ${LOC2}/TC-TEMP-PROFILE-5-5
fix 3 all ave/chunk 1 200000 200000 layers v_temp1 file ${LOC2}/TC-TEMP-PROFILE-5-5
fix 3 all ave/chunk 1 200000 200000 layers v_temp1 file ../output/output-2//TC-TEMP-PROFILE-5-5

thermo ${thermo_save}
thermo 100

variable A equal lx*lz
variable flux equal f_1/((time-0.000000000001)*v_A) #ADD -0.000001 to avoid division by zero
thermo_style custom time temp v_A f_1 v_flux

run ${N_TC}
run 200000
Neighbor list info ...
  1 neighbor list requests
  update every 1 steps, delay 10 steps, check yes
  max neighbors/atom: 2000, page size: 100000
  master list distance cutoff = 5.77118
  ghost atom cutoff = 5.77118
  binsize = 2.88559 -> bins = 10 48 10
Memory usage per processor = 2.65044 Mbytes
Time Temp A 1 flux 
           0    496.51516    740.24445            0           -0 
         0.1    498.43106    740.24445   0.55972739 0.0075613858 
         0.2    504.91701    740.24445    1.0118218 0.0068343764 
         0.3    507.66606    740.24445    1.5174289 0.0068330083 
         0.4    497.34106    740.24445    2.0248411 0.0068384205 
         0.5    498.17978    740.24445    2.4605894 0.0066480454 
         0.6    499.84953    740.24445    2.9318258 0.0066010306 
         0.7    501.88482    740.24445    3.3712892 0.0065061311 
         0.8    497.64892    740.24445    3.9877559 0.0067338497 
         0.9    497.52522    740.24445    4.4316125 0.0066518754 
           1    494.68234    740.24445    5.0287457 0.0067933582 
         1.1    499.47072    740.24445    5.5274303 0.0067882125 
         1.2     496.6452    740.24445    5.9980718 0.0067523548 
         1.3    502.87101    740.24445    6.4985475 0.0067530161 
         1.4    491.35959    740.24445    6.9790332 0.0067342939 
         1.5    502.15297    740.24445    7.6082864 0.0068520486 
         1.6     494.7487    740.24445    8.0954354  0.006835103 
         1.7    497.71736    740.24445    8.5566377 0.0067995327 
         1.8    494.21653    740.24445    9.0591393 0.0067989097 
         1.9    499.49037    740.24445    9.5840556 0.0068142892 
           2    493.62275    740.24445    10.038095 0.0067802569 
         2.1     494.6789    740.24445    10.542348 0.0067817673 
         2.2    499.92175    740.24445    11.296634 0.0069366731 
         2.3    501.03056    740.24445    11.733519 0.0068916831 
         2.4    498.52803    740.24445    12.161158 0.0068452377 
         2.5    491.11977    740.24445    12.694338 0.0068595384 
         2.6    493.28105    740.24445    13.108204  0.006810746 
         2.7     502.0882    740.24445    13.634746 0.0068219439 
         2.8    499.15856    740.24445    14.196581 0.0068493691 
         2.9     497.1115    740.24445    14.669281 0.0068333816 
           3    492.95326    740.24445    15.189174 0.0068397109 
         3.1     494.7683    740.24445    15.617884 0.0068058965 
         3.2    499.52946    740.24445     16.15523 0.0068200569 
         3.3    506.25655    740.24445     16.76179  0.006861693 
         3.4    507.67787    740.24445    17.468245 0.0069405711 
         3.5    500.50065    740.24445    17.978039 0.0069390355 
         3.6    492.65165    740.24445     18.49617 0.0069407139 
         3.7    496.88876    740.24445    18.962694 0.0069234595 
         3.8    500.89268    740.24445    19.469314 0.0069213672 
         3.9     495.9156    740.24445    19.985579 0.0069227232 
           4    503.92515    740.24445    20.617784 0.0069631672 
         4.1    497.60565    740.24445    21.080273 0.0069457191 
         4.2    493.98764    740.24445    21.603901 0.0069487667 
         4.3     497.6385    740.24445    22.075971 0.0069354747 
         4.4    496.54108    740.24445    22.541991 0.0069209297 
         4.5    500.36028    740.24445    23.100107 0.0069346782 
         4.6    500.09993    740.24445    23.648044 0.0069448397 
         4.7    500.94208    740.24445    24.182462 0.0069506833 
         4.8    499.26329    740.24445    24.709093 0.0069540917 
         4.9    497.00022    740.24445    25.108165 0.0069221935 
           5    491.43185    740.24445    25.696005 0.0069425729 
         5.1    500.13214    740.24445     26.31431 0.0069702227 
         5.2    493.69598    740.24445    26.816615 0.0069666733 
         5.3    497.64252    740.24445     27.30539 0.0069598096 
         5.4    498.77627    740.24445    27.840954 0.0069649048 
         5.5     496.6958    740.24445    28.240478  0.006936401 
         5.6    498.70006    740.24445    28.733271 0.0069314147 
         5.7     497.7342    740.24445    29.280412 0.0069394838 
         5.8    500.65673    740.24445    29.739474 0.0069267598 
         5.9    497.80693    740.24445    30.181006 0.0069104533 
           6    497.81532    740.24445    30.626789 0.0068956475 
         6.1    506.57576    740.24445    31.055477 0.0068775414 
         6.2    500.35618    740.24445     31.80955 0.0069309167 
         6.3    506.35774    740.24445    32.399995 0.0069475108 
         6.4    502.91943    740.24445    32.830406 0.0069298068 
         6.5    503.62568    740.24445    33.363215 0.0069339287 
         6.6    502.00005    740.24445    33.841964 0.0069268608 
         6.7    503.86036    740.24445    34.511277 0.0069584269 
         6.8    495.92296    740.24445    35.022115 0.0069575814 
         6.9    491.13446    740.24445    35.539272 0.0069579977 
           7    507.04597    740.24445    35.985681 0.0069447486 
         7.1    498.41823    740.24445    36.420874 0.0069297386 
         7.2    495.88221    740.24445    36.883832 0.0069203551 
         7.3    499.89363    740.24445    37.399667 0.0069210137 
         7.4    502.85262    740.24445    37.844625 0.0069087158 
         7.5    499.88827    740.24445    38.372751  0.006911726 
         7.6    492.54341    740.24445    38.754176 0.0068885809 
         7.7    496.10446    740.24445    39.390763 0.0069108029 
         7.8    497.67744    740.24445    39.981694  0.006924548 
         7.9    498.57935    740.24445    40.537717 0.0069319758 
           8    506.68857    740.24445    41.098729 0.0069400602 
         8.1    499.54066    740.24445     41.56119 0.0069315091 
         8.2    496.99785    740.24445    42.044627  0.006926622 
         8.3     505.5771    740.24445    42.562052 0.0069273847 
         8.4    496.28129    740.24445    43.111495 0.0069332784 
         8.5    493.89935    740.24445    43.556091 0.0069223701 
         8.6    496.44304    740.24445    43.943938 0.0069028011 
         8.7    493.59784    740.24445    44.377652 0.0068908041 
         8.8    498.33148    740.24445    44.734004 0.0068672038 
         8.9    501.28015    740.24445    45.189334 0.0068591574 
           9    498.34065    740.24445    45.801084 0.0068747686 
         9.1    501.85218    740.24445    46.314407 0.0068754251 
         9.2    500.74224    740.24445    46.847793 0.0068790132 
         9.3    495.16038    740.24445    47.500497 0.0068998564 
         9.4    498.19846    740.24445    47.987465 0.0068964373 
         9.5    499.25515    740.24445    48.588343 0.0069092884 
         9.6    498.46895    740.24445    49.023942 0.0068986138 
         9.7    501.23409    740.24445    49.485742 0.0068918084 
         9.8     499.3637    740.24445    49.971259  0.006888411 
         9.9    494.65681    740.24445    50.504053 0.0068915336 
          10    498.24082    740.24445    51.106314  0.006903978 
        10.1    503.33071    740.24445    51.619711 0.0069042902 
        10.2    509.32631    740.24445    52.133188 0.0069046068 
        10.3    501.57601    740.24445    52.560824 0.0068936587 
        10.4     500.1753    740.24445    52.991072 0.0068832605 
        10.5    498.74026    740.24445    53.400934 0.0068704375 
        10.6    497.24167    740.24445    53.928808 0.0068728963 
        10.7    500.56845    740.24445    54.413864 0.0068699034 
        10.8    500.77446    740.24445    54.966983 0.0068754794 
        10.9     499.9779    740.24445    55.599609 0.0068908069 
          11    493.29947    740.24445    56.238092  0.006906575 
        11.1    505.37251    740.24445    56.874596 0.0069218181 
        11.2    498.08005    740.24445    57.346099 0.0069168873 
        11.3    500.36233    740.24445    57.821706 0.0069125343 
        11.4    497.60225    740.24445    58.315058 0.0069103604 
        11.5    496.56953    740.24445    58.772513 0.0069040076 
        11.6    498.49489    740.24445    59.175289 0.0068913965 
        11.7    503.74159    740.24445    59.724716 0.0068959336 
        11.8    494.49613    740.24445    60.321907  0.006905862 
        11.9    500.34567    740.24445     60.85267 0.0069080825 
          12    494.25935    740.24445    61.249605 0.0068952003 
        12.1    490.91316    740.24445    61.924141 0.0069135238 
        12.2    496.34041    740.24445    62.375726 0.0069068595 
        12.3    507.08444    740.24445    62.919865 0.0069104688 
        12.4    498.69712    740.24445    63.369773  0.006903754 
        12.5    495.25293    740.24445    63.883377 0.0069040304 
        12.6    492.87902    740.24445    64.368555 0.0069012547 
        12.7     499.9213    740.24445    64.865609 0.0068997859 
        12.8    497.97342    740.24445    65.371063 0.0068992267 
        12.9    492.59471    740.24445    65.858195 0.0068967575 
          13     493.5261    740.24445    66.353382 0.0068951633 
        13.1    496.95251    740.24445      66.9256  0.006901537 
        13.2    494.30612    740.24445     67.35699 0.0068934016 
        13.3     498.1624    740.24445    67.871968 0.0068938787 
        13.4    499.94227    740.24445    68.499167 0.0069056622 
        13.5    500.33183    740.24445    69.036268 0.0069082553 
        13.6    499.60391    740.24445    69.497106 0.0069032349 
        13.7    495.80251    740.24445    70.031033 0.0069054948 
        13.8    502.54786    740.24445    70.511057 0.0069024453 
        13.9    496.98182    740.24445    70.944364 0.0068948995 
          14    499.01001    740.24445    71.528503 0.0069020156 
        14.1    504.43467    740.24445    71.965898 0.0068949716 
        14.2    493.33035    740.24445    72.455106 0.0068929558 
        14.3    492.93811    740.24445    72.949052 0.0068914158 
        14.4    506.07059    740.24445    73.465471 0.0068920055 
        14.5    501.65428    740.24445    74.127347 0.0069061386 
        14.6    498.28235    740.24445    74.624411 0.0069048286 
        14.7    494.92312    740.24445    75.053512 0.0068972906 
        14.8    501.47809    740.24445    75.601013 0.0069006617 
        14.9    502.81416    740.24445    76.154877 0.0069045645 
          15    499.76577    740.24445    76.751701 0.0069122842 
        15.1    497.57691    740.24445     77.17889 0.0069047255 
        15.2    501.47173    740.24445    77.648213  0.006901011 
        15.3    502.52268    740.24445    78.114489 0.0068970759 
        15.4    495.95053    740.24445    78.687582  0.006902562 
        15.5     493.6078    740.24445    79.284114 0.0069100203 
        15.6    498.95079    740.24445     79.95011 0.0069233981 
        15.7     506.0091    740.24445    80.502959 0.0069268699 
        15.8    497.97735    740.24445     80.97715 0.0069235724 
        15.9    489.76239    740.24445     81.35296 0.0069119577 
          16    495.87422    740.24445    81.849963 0.0069107207 
        16.1    506.04564    740.24445    82.360947 0.0069106723 
        16.2    500.88769    740.24445    82.946523 0.0069168445 
        16.3    496.73458    740.24445    83.457635 0.0069167696 
        16.4    502.94599    740.24445     83.92266 0.0069128993 
        16.5    504.15974    740.24445    84.384681 0.0069088301 
        16.6     493.5343    740.24445    84.849913 0.0069050711 
        16.7    493.73638    740.24445    85.333404 0.0069028341 
        16.8    492.25506    740.24445    85.884407 0.0069060525 
        16.9    498.54903    740.24445    86.417272  0.006907783 
          17    504.10017    740.24445    86.892792 0.0069049362 
        17.1    495.74514    740.24445     87.31324  0.006897772 
        17.2    506.99192    740.24445    87.826831 0.0068980066 
        17.3    499.47125    740.24445     88.26621 0.0068924435 
        17.4    499.77091    740.24445    88.699679 0.0068864855 
        17.5     503.1507    740.24445    89.189569  0.006884951 
        17.6    504.98611    740.24445    89.668889 0.0068826227 
        17.7    497.16583    740.24445    90.222687 0.0068860049 
        17.8    498.48988    740.24445    90.648961  0.006879671 
        17.9    502.84746    740.24445    91.175368 0.0068809648 
          18    497.85798    740.24445     91.68468 0.0068809612 
        18.1    500.72585    740.24445    92.149136 0.0068776098 
        18.2    500.41876    740.24445    92.727016 0.0068827142 
        18.3    500.84581    740.24445     93.20037 0.0068800467 
        18.4    502.90759    740.24445    93.774984 0.0068848426 
        18.5    498.20881    740.24445    94.189471 0.0068778939 
        18.6    491.44736    740.24445    94.656743 0.0068748536 
        18.7     495.0744    740.24445    95.241369 0.0068803236 
        18.8    500.56997    740.24445    95.698251 0.0068765561 
        18.9    494.75363    740.24445    96.133677 0.0068712949 
          19    500.50159    740.24445    96.590187 0.0068675882 
        19.1    500.85014    740.24445    97.234086  0.006877174 
        19.2    500.36947    740.24445    97.779031 0.0068796974 
        19.3     498.2625    740.24445    98.296854 0.0068802964 
        19.4    500.19219    740.24445    98.752425 0.0068765543 
        19.5    492.69562    740.24445     99.34943 0.0068826488 
        19.6      493.058    740.24445    99.839233 0.0068812922 
        19.7    494.13278    740.24445    100.37438  0.006883059 
        19.8    499.92187    740.24445    100.85809 0.0068812985 
        19.9    501.95999    740.24445    101.45668  0.006887354 
          20    487.07108    740.24445    102.00945 0.0068902542 
        20.1    490.47735    740.24445    102.53626 0.0068913808 
        20.2    499.60965    740.24445    103.01455 0.0068892518 
        20.3    498.70382    740.24445    103.46202  0.006885092 
        20.4    490.83164    740.24445    103.93928 0.0068829464 
        20.5    499.79919    740.24445    104.49537 0.0068860159 
        20.6    504.36955    740.24445    104.99798 0.0068855488 
        20.7    499.60317    740.24445    105.53237 0.0068871604 
        20.8    500.40651    740.24445    106.09225 0.0068904119 
        20.9    505.28659    740.24445    106.58844  0.006889515 
          21    498.40797    740.24445    107.06665 0.0068874706 
        21.1    494.63074    740.24445    107.93808 0.0069106207 
        21.2    498.26809    740.24445    108.38992 0.0069068156 
        21.3    501.53687    740.24445    108.99746 0.0069129216 
        21.4    508.84341    740.24445    109.41026 0.0069066768 
        21.5     505.2471    740.24445    109.90105 0.0069053905 
        21.6    496.76338    740.24445    110.46632 0.0069087739 
        21.7    486.91564    740.24445    111.00829 0.0069106757 
        21.8    507.08293    740.24445    111.54434 0.0069121933 
        21.9    504.13811    740.24445    112.03759 0.0069110572 
          22    501.19399    740.24445     112.5828 0.0069131216 
        22.1    498.07014    740.24445    113.04763  0.006910254 
        22.2    504.29769    740.24445    113.49629 0.0069064284 
        22.3    503.20168    740.24445    113.97379 0.0069043846 
        22.4    498.00733    740.24445    114.44021 0.0069016903 
        22.5    496.14503    740.24445    114.92954 0.0069003957 
        22.6    497.98604    740.24445    115.37604  0.006896552 
        22.7    491.35533    740.24445      115.833 0.0068933653 
        22.8    499.71863    740.24445    116.31959 0.0068919616 
        22.9    501.64197    740.24445    116.90106 0.0068961673 
          23    499.87135    740.24445    117.43607  0.006897608 
        23.1    487.59714    740.24445    117.94325 0.0068974084 
        23.2    494.42739    740.24445    118.45863  0.006897688 
        23.3    497.77537    740.24445      118.966 0.0068975012 
        23.4    492.56113    740.24445    119.47514 0.0068974175 
        23.5    501.45768    740.24445    119.91788  0.006893518 
        23.6    502.86257    740.24445    120.42978 0.0068936104 
        23.7    498.50226    740.24445     120.9442 0.0068938456 
        23.8    491.79944    740.24445    121.54562 0.0068990167 
        23.9    501.29181    740.24445     122.0055 0.0068961443 
          24    492.62942    740.24445    122.54454 0.0068977519 
        24.1    500.95972    740.24445    122.92221 0.0068903004 
        24.2      509.569    740.24445    123.41326   0.00688924 
        24.3    500.25879    740.24445    123.94115  0.006890236 
        24.4    496.32874    740.24445    124.52797 0.0068944865 
        24.5    498.73978    740.24445    124.95336 0.0068898014 
        24.6    502.90896    740.24445    125.38721 0.0068856188 
        24.7    505.82586    740.24445    125.95039 0.0068885436 
        24.8    500.47472    740.24445    126.40572 0.0068855699 
        24.9    503.27041    740.24445     126.8687 0.0068830351 
          25    496.07524    740.24445    127.40759 0.0068846226 
        25.1    499.67972    740.24445    127.80906 0.0068788014 
        25.2    505.94906    740.24445    128.24535  0.006874893 
        25.3    507.93894    740.24445    128.72516  0.006873339 
        25.4     501.0443    740.24445    129.24456 0.0068739028 
        25.5    496.36432    740.24445    129.63419  0.006867588 
        25.6    497.64175    740.24445     130.1981 0.0068705188 
        25.7    504.24586    740.24445    130.87984 0.0068796203 
        25.8     500.7774    740.24445    131.44437 0.0068825143 
        25.9    500.30854    740.24445    132.05061 0.0068875617 
          26    494.40755    740.24445    132.53603  0.006886292 
        26.1    489.16684    740.24445    132.94897 0.0068812811 
        26.2    501.14841    740.24445    133.44788 0.0068807413 
        26.3    491.69433    740.24445    134.09409 0.0068877716 
        26.4    495.61887    740.24445    134.50596 0.0068827572 
        26.5    500.21593    740.24445    135.02847 0.0068834207 
        26.6    506.50011    740.24445    135.51518 0.0068822613 
        26.7    494.05053    740.24445    135.94651 0.0068783083 
        26.8    493.93532    740.24445    136.49797 0.0068804403 
        26.9    503.86498    740.24445    137.13755 0.0068869822 
          27    500.29425    740.24445    137.76116 0.0068926761 
        27.1     502.3649    740.24445    138.27678 0.0068929449 
        27.2    498.99044    740.24445    138.83885 0.0068955188 
        27.3    503.76805    740.24445    139.44732 0.0069003699 
        27.4    493.74085    740.24445    139.90478 0.0068977402 
        27.5    497.08133    740.24445     140.5263 0.0069031891 
        27.6    504.22454    740.24445    141.04946 0.0069037839 
        27.7    499.27975    740.24445    141.60534 0.0069059701 
        27.8    502.24924    740.24445    142.11859 0.0069060695 
        27.9    502.93704    740.24445    142.61537 0.0069053702 
          28    504.37878    740.24445    143.03627 0.0069010151 
        28.1    492.84064    740.24445    143.49834 0.0068986705 
        28.2    500.04651    740.24445    143.93126  0.006894946 
        28.3    502.49917    740.24445    144.36558 0.0068913142 
        28.4    503.05193    740.24445    144.86462 0.0068907869 
        28.5    495.77077    740.24445    145.32949 0.0068886438 
        28.6    499.94183    740.24445    145.80426 0.0068869831 
        28.7     500.4713    740.24445    146.27787 0.0068852794 
        28.8    499.74686    740.24445    146.74313 0.0068831961 
        28.9    493.52572    740.24445    147.43455 0.0068916985 
          29    501.40822    740.24445     147.8416 0.0068868953 
        29.1    501.25634    740.24445    148.36796 0.0068876646 
        29.2    503.09769    740.24445    148.78572 0.0068834038 
        29.3    499.45601    740.24445    149.17905 0.0068780457 
        29.4     500.9077    740.24445    149.74534 0.0068806715 
        29.5    493.64093    740.24445    150.23023 0.0068795519 
        29.6    497.91801    740.24445    150.79831 0.0068822367 
        29.7    502.23794    740.24445    151.26888 0.0068804682 
        29.8    495.38477    740.24445    151.75523 0.0068794266 
        29.9    498.27911    740.24445    152.34499 0.0068830642 
          30    503.75985    740.24445    152.74071 0.0068779399 
        30.1    505.70656    740.24445    153.27722 0.0068791687 
        30.2    499.11344    740.24445    153.78906 0.0068792855 
        30.3     497.0123    740.24445    154.25992 0.0068775748 
        30.4    496.75254    740.24445    154.85061    0.0068812 
        30.5    506.98139    740.24445    155.33589 0.0068801326 
        30.6    499.84475    740.24445    156.01732 0.0068877318 
        30.7    499.60866    740.24445    156.48923  0.006886062 
        30.8    500.14204    740.24445    157.06504 0.0068889599 
        30.9    496.22751    740.24445    157.63946 0.0068917781 
          31    494.83803    740.24445     158.1474 0.0068916814 
        31.1    497.72703    740.24445    158.85577 0.0069002915 
        31.2    498.76198    740.24445    159.39475 0.0069015123 
        31.3    498.97697    740.24445    159.88872 0.0069007822 
        31.4    500.42541    740.24445    160.39779 0.0069007068 
        31.5    501.30297    740.24445    160.87573 0.0068992966 
        31.6    492.38377    740.24445    161.47605 0.0069031272 
        31.7    491.70661    740.24445    162.02116 0.0069045807 
        31.8    490.18166    740.24445    162.66238 0.0069101081 
        31.9    495.08621    740.24445    163.07336 0.0069058505 
          32    499.98081    740.24445    163.46447 0.0069007807 
        32.1    498.64622    740.24445     164.0835 0.0069053343 
        32.2    499.48462    740.24445    164.58047  0.006904739 
        32.3    493.80668    740.24445    165.00545 0.0069011362 
        32.4    498.16579    740.24445    165.47783 0.0068995321 
        32.5    498.70707    740.24445    166.00743 0.0069003165 
        32.6    501.33508    740.24445    166.77123 0.0069108007 
        32.7    496.11525    740.24445    167.39949 0.0069156215 
        32.8    496.69295    740.24445    167.86887 0.0069138693 
        32.9    504.12289    740.24445    168.34866 0.0069125549 
          33    508.23179    740.24445    168.83978 0.0069117126 
        33.1    497.16714    740.24445     169.3309 0.0069108755 
        33.2    499.54554    740.24445     170.0751 0.0069203408 
        33.3    498.35026    740.24445    170.55499 0.0069190273 
        33.4     498.7364    740.24445    171.03352 0.0069176662 
        33.5    497.55914    740.24445    171.63231 0.0069211629 
        33.6    497.20956    740.24445    172.14708 0.0069212609 
        33.7    499.49545    740.24445    172.57463 0.0069178619 
        33.8    507.13633    740.24445    173.04341 0.0069161308 
        33.9    498.30589    740.24445    173.48859 0.0069134695 
          34    494.12624    740.24445    173.91133 0.0069099325 
        34.1    503.56129    740.24445    174.35299 0.0069071655 
        34.2    500.97112    740.24445    174.82222 0.0069055038 
        34.3     500.2371    740.24445    175.35312 0.0069062806 
        34.4     500.3066    740.24445    175.83426 0.0069050988 
        34.5    494.84274    740.24445    176.27844 0.0069024765 
        34.6    492.05786    740.24445    176.86523 0.0069054376 
        34.7    496.62419    740.24445    177.37461 0.0069053677 
        34.8    497.60415    740.24445    177.97181 0.0069087077 
        34.9    496.52295    740.24445    178.57951 0.0069124347 
          35    499.51682    740.24445    179.13084 0.0069139648 
        35.1    493.72016    740.24445    179.62123 0.0069131406 
        35.2     506.0933    740.24445    180.17275 0.0069146672 
        35.3    493.94165    740.24445    180.68713 0.0069147638 
        35.4    494.72591    740.24445    181.35607 0.0069207581 
        35.5    498.53589    740.24445    181.89909  0.006921927 
        35.6    493.61319    740.24445    182.45864 0.0069237165 
        35.7    496.55353    740.24445    182.96423 0.0069234539 
        35.8    495.60165    740.24445    183.41121 0.0069209816 
        35.9    500.23901    740.24445     183.8723 0.0069190536 
          36    504.47353    740.24445     184.5092 0.0069237338 
        36.1    502.96035    740.24445    184.91346 0.0069196824 
        36.2    494.89742    740.24445     185.3267 0.0069159883 
        36.3    497.40104    740.24445    185.87353 0.0069172865 
        36.4    494.78214    740.24445    186.33126 0.0069152706 
        36.5    499.87988    740.24445    186.86152   0.00691595 
        36.6    503.45744    740.24445    187.30035 0.0069132513 
        36.7    500.91776    740.24445    187.89726 0.0069163858 
        36.8    498.75599    740.24445    188.48431 0.0069191418 
        36.9    501.12554    740.24445    189.01185 0.0069197038 
          37    500.08794    740.24445    189.53405 0.0069200681 
        37.1    501.69633    740.24445    190.02386 0.0069192508 
        37.2    504.24793    740.24445    190.55948 0.0069201013 
        37.3    511.23505    740.24445    191.31437 0.0069288889 
        37.4    501.85493    740.24445    191.89592 0.0069313683 
        37.5    501.53546    740.24445    192.42252 0.0069318551 
        37.6    487.09233    740.24445    192.86926 0.0069294699 
        37.7    498.12729    740.24445    193.39312 0.0069298608 
        37.8    504.89099    740.24445    193.83646 0.0069273719 
        37.9    494.81304    740.24445    194.33867 0.0069269947 
          38    503.98711    740.24445    194.76384 0.0069238808 
        38.1    494.32508    740.24445    195.21554 0.0069217236 
        38.2    494.26945    740.24445    195.91929 0.0069284911 
        38.3    500.22193    740.24445    196.40768 0.0069276274 
        38.4    494.97426    740.24445    196.98807 0.0069300048 
        38.5    492.44121    740.24445     197.5585 0.0069320205 
        38.6    498.32151    740.24445    197.98687 0.0069290536 
        38.7    492.23152    740.24445    198.40169 0.0069256294 
        38.8    502.58011    740.24445     199.1164 0.0069326639 
        38.9    503.77502    740.24445    199.55039 0.0069299136 
          39    498.81156    740.24445    200.04536 0.0069292896 
        39.1    498.72653    740.24445    200.56192  0.006929415 
        39.2    494.35686    740.24445    201.11131 0.0069306706 
        39.3    493.29236    740.24445    201.70294 0.0069333721 
        39.4    499.52687    740.24445    202.20967 0.0069331492 
        39.5    500.91248    740.24445    202.68199   0.00693175 
        39.6    494.94339    740.24445    203.10265 0.0069285962 
        39.7    492.76798    740.24445    203.63085 0.0069291171 
        39.8    497.25565    740.24445    204.12178 0.0069283706 
        39.9    491.74103    740.24445    204.82452 0.0069347994 
          40    497.45773    740.24445    205.34169 0.0069349284 
        40.1    498.01629    740.24445    205.86239  0.006935176 
        40.2    503.00413    740.24445    206.49745 0.0069392651 
        40.3    498.09527    740.24445    206.94787 0.0069371446 
        40.4     493.4355    740.24445    207.39989 0.0069350883 
        40.5    494.46074    740.24445    207.90023 0.0069346537 
        40.6    501.88682    740.24445    208.41568 0.0069347243 
        40.7    499.53577    740.24445    209.02739 0.0069379894 
        40.8    499.85229    740.24445    209.51304 0.0069370645 
        40.9    500.85473    740.24445     209.9999 0.0069361841 
          41    502.26066    740.24445    210.54584 0.0069372549 
        41.1    496.39211    740.24445    210.98899 0.0069349416 
        41.2    493.39286    740.24445    211.48574 0.0069343973 
        41.3    498.46125    740.24445    212.16759 0.0069399097 
        41.4    498.21686    740.24445    212.64937 0.0069388676 
        41.5    496.88897    740.24445    213.17198 0.0069391595 
        41.6    503.42385    740.24445    213.67499 0.0069388133 
        41.7    498.94647    740.24445      214.223 0.0069399267 
        41.8    499.48893    740.24445    214.77887 0.0069412888 
        41.9    501.88811    740.24445    215.34062  0.006942834 
          42    492.80954    740.24445    215.79954 0.0069410642 
        42.1    498.47099    740.24445    216.25927  0.006939329 
        42.2    494.30342    740.24445    216.79822 0.0069401379 
        42.3    496.04758    740.24445    217.26462 0.0069386259 
        42.4    493.00864    740.24445    217.75189 0.0069377861 
        42.5    497.68647    740.24445    218.22546  0.006936515 
        42.6    502.99091    740.24445    218.78683 0.0069380339 
        42.7    502.40932    740.24445    219.27306 0.0069371686 
        42.8    493.07243    740.24445    219.73832 0.0069356451 
        42.9    494.62208    740.24445     220.1496 0.0069324294 
          43     504.6458    740.24445    220.66283 0.0069324313 
        43.1    502.23069    740.24445     221.1687 0.0069322023 
        43.2    500.97958    740.24445    221.65743 0.0069314388 
        43.3    491.91764    740.24445    222.16066 0.0069311309 
        43.4    505.86446    740.24445    222.69295 0.0069317291 
        43.5    500.98381    740.24445    223.17419 0.0069307391 
        43.6    495.56476    740.24445    223.73837 0.0069323234 
        43.7    498.45044    740.24445    224.28652 0.0069334052 
        43.8    509.10371    740.24445    224.78294 0.0069328862 
        43.9     501.7164    740.24445     225.2213 0.0069305833 
          44    498.19923    740.24445     225.6636 0.0069284115 
        44.1    503.95555    740.24445    226.12648 0.0069268803 
        44.2    505.21273    740.24445    226.67405  0.006927944 
        44.3    502.41435    740.24445     227.2284   0.00692921 
        44.4    495.02825    740.24445     227.7962 0.0069308793 
        44.5    502.31221    740.24445    228.22002 0.0069281706 
        44.6    498.01172    740.24445    228.62985 0.0069250501 
        44.7    502.88618    740.24445    229.12713 0.0069245864 
        44.8     502.2314    740.24445    229.51199 0.0069207346 
        44.9    495.59491    740.24445    230.18435 0.0069255502 
          45    500.47582    740.24445    230.73223 0.0069266076 
        45.1    497.49463    740.24445    231.14241 0.0069235357 
        45.2    500.11823    740.24445    231.60019 0.0069218999 
        45.3     495.8488    740.24445    232.06756 0.0069205575 
        45.4    493.45202    740.24445    232.54475 0.0069195128 
        45.5    499.85577    740.24445     233.1096 0.0069210757 
        45.6    494.83207    740.24445    233.74923 0.0069248469 
        45.7     496.9288    740.24445    234.19046 0.0069227372 
        45.8    504.85432    740.24445    234.70641 0.0069228404 
        45.9    491.92027    740.24445    235.21905 0.0069228455 
          46    491.29597    740.24445    235.74729  0.006923309 
        46.1    499.60365    740.24445    236.33639  0.006925554 
        46.2    497.40911    740.24445    236.86426 0.0069259985 
        46.3    500.52386    740.24445    237.44713 0.0069280461 
        46.4    501.75124    740.24445     238.0683 0.0069312001 
        46.5    496.37194    740.24445       238.54 0.0069299979 
        46.6    501.06163    740.24445    238.99213 0.0069282336 
        46.7    494.53813    740.24445    239.43235 0.0069261322 
        46.8    495.22673    740.24445    239.96792 0.0069267924 
        46.9    491.69604    740.24445    240.45855 0.0069261553 
          47    491.85637    740.24445    240.95235 0.0069256118 
        47.1    500.94128    740.24445    241.68112 0.0069318102 
        47.2    498.64088    740.24445    242.13735 0.0069301817 
        47.3    494.70297    740.24445    242.70904  0.006931858 
        47.4    490.56825    740.24445    243.27647 0.0069334055 
        47.5    503.24698    740.24445     243.7171 0.0069313404 
        47.6    499.09807    740.24445    244.18762 0.0069301322 
        47.7    494.32349    740.24445    244.63851 0.0069283733 
        47.8    498.88012    740.24445     245.0985 0.0069268789 
        47.9      507.349    740.24445    245.58721 0.0069262007 
          48    493.40175    740.24445    246.09675 0.0069261116 
        48.1    501.94057    740.24445    246.55659 0.0069246268 
        48.2    499.95309    740.24445    247.01222 0.0069230304 
        48.3     506.2106    740.24445     247.5443 0.0069235789 
        48.4    494.20979    740.24445    248.09146 0.0069245458 
        48.5    498.46283    740.24445    248.56469 0.0069234495 
        48.6    495.12163    740.24445    249.05518 0.0069228376 
        48.7    500.85081    740.24445     249.4586 0.0069198131 
        48.8    505.29556    740.24445    250.08032 0.0069228437 
        48.9    504.17815    740.24445    250.62538 0.0069237444 
          49     497.5637    740.24445    251.09995 0.0069226981 
        49.1    496.86271    740.24445    251.58649  0.006921985 
        49.2    504.59139    740.24445    252.07624 0.0069213632 
        49.3    501.34872    740.24445    252.61453 0.0069220742 
        49.4    503.38991    740.24445    253.17784 0.0069234664 
        49.5    501.70448    740.24445    253.95569 0.0069307078 
        49.6    501.70172    740.24445    254.43796 0.0069298697 
        49.7    495.69513    740.24445    254.89235 0.0069282771 
        49.8    498.14359    740.24445    255.60885 0.0069338011 
        49.9    498.68643    740.24445    256.04079 0.0069315992 
          50    492.03523    740.24445    256.60584 0.0069330029 
        50.1    504.26288    740.24445     257.0276 0.0069305369 
        50.2    495.30061    740.24445    257.48389   0.00692901 
        50.3    502.27961    740.24445     257.9958  0.006928983 
        50.4    495.34966    740.24445    258.65137 0.0069328065 
        50.5    498.97698    740.24445    259.18473 0.0069333459 
        50.6    497.82216    740.24445     259.6248 0.0069313927 
        50.7    492.23781    740.24445    260.13952  0.006931436 
        50.8    503.89233    740.24445    260.58817 0.0069297223 
        50.9    500.89069    740.24445    261.07325 0.0069289821 
          51    494.83262    740.24445    261.47955 0.0069261579 
        51.1    492.95485    740.24445    261.91489 0.0069241128 
        51.2    496.86352    740.24445    262.37386 0.0069226989 
        51.3    497.15362    740.24445    262.84766 0.0069216811 
        51.4    501.42528    740.24445    263.31771 0.0069205689 
        51.5    500.06043    740.24445    263.77103 0.0069190219 
        51.6    493.17256    740.24445    264.23524  0.006917766 
        51.7    496.95427    740.24445    264.71787 0.0069169966 
        51.8    501.17417    740.24445    265.20567 0.0069163647 
        51.9    497.15443    740.24445    265.77424 0.0069178377 
          52    500.52355    740.24445     266.2515  0.006916933 
        52.1    497.48217    740.24445    266.82808 0.0069186068 
        52.2    498.57887    740.24445    267.38463  0.006919756 
        52.3    498.29534    740.24445    267.96273 0.0069214573 
        52.4    498.98082    740.24445    268.41807 0.0069199873 
        52.5     497.2154    740.24445    268.91775  0.006919664 
        52.6    498.72974    740.24445     269.4542 0.0069202863 
        52.7    499.05285    740.24445    269.92678 0.0069192687 
        52.8    499.84697    740.24445    270.64643 0.0069245767 
        52.9    501.71691    740.24445    271.28946 0.0069279076 
          53    495.81432    740.24445    271.79507 0.0069277234 
        53.1    497.53627    740.24445    272.35742 0.0069289837 
        53.2    495.55392    740.24445    272.74798 0.0069258767 
        53.3    491.63014    740.24445    273.27442 0.0069262253 
        53.4    506.39349    740.24445    274.01334  0.006931948 
        53.5    497.63753    740.24445    274.55335 0.0069326265 
        53.6    501.06918    740.24445    275.05994 0.0069324602 
        53.7    503.25524    740.24445    275.51903 0.0069310998 
        53.8     501.5015    740.24445    276.16896 0.0069345362 
        53.9    490.56445    740.24445     276.7489  0.006936206 
          54    500.12781    740.24445    277.27142 0.0069364328 
        54.1    498.26253    740.24445    277.76918 0.0069360408 
        54.2    497.76729    740.24445    278.20053 0.0069339946 
        54.3    496.54984    740.24445    278.68285 0.0069332244 
        54.4    499.06943    740.24445    279.22209 0.0069338703 
        54.5    494.27728    740.24445    279.87119 0.0069372369 
        54.6    496.76027    740.24445    280.44822 0.0069388081 
        54.7    492.50877    740.24445    280.89172 0.0069370759 
        54.8    500.96803    740.24445    281.39986 0.0069369434 
        54.9    505.94909    740.24445    281.91289 0.0069369317 
          55    498.04869    740.24445    282.49149 0.0069385307 
        55.1     498.5868    740.24445    282.92718   0.00693662 
        55.2    497.93183    740.24445    283.42425 0.0069362185 
        55.3    501.08984    740.24445    283.89765 0.0069352403 
        55.4    508.14642    740.24445    284.43628 0.0069358559 
        55.5    498.27634    740.24445    284.96908 0.0069363275 
        55.6    500.57498    740.24445    285.45371 0.0069356273 
        55.7    501.45586    740.24445    285.89531 0.0069338855 
        55.8    496.05023    740.24445    286.56553 0.0069376852 
        55.9    503.53895    740.24445    287.05599  0.006937127 
          56    502.53669    740.24445    287.50029 0.0069354573 
        56.1     501.8197    740.24445      287.941 0.0069337071 
        56.2    499.33436    740.24445    288.44346 0.0069334474 
        56.3    496.85228    740.24445    288.89891 0.0069320605 
        56.4    502.44428    740.24445    289.39007  0.006931534 
        56.5    504.19513    740.24445    289.80103 0.0069290917 
        56.6    501.34483    740.24445    290.33335 0.0069295549 
        56.7    494.10718    740.24445    290.71512 0.0069264292 
        56.8    500.91994    740.24445    291.26624 0.0069273425 
        56.9    503.31889    740.24445    291.95953 0.0069316278 
          57    503.44933    740.24445     292.4793 0.0069317855 
        57.1    499.65719    740.24445    293.00413 0.0069320626 
        57.2    496.83777    740.24445     293.6051 0.0069341369 
        57.3    497.17481    740.24445    294.05864  0.006932728 
        57.4      507.039    740.24445    294.66081 0.0069348222 
        57.5    498.18096    740.24445    295.13525 0.0069339081 
        57.6    495.96307    740.24445    295.76889  0.006936731 
        57.7     495.3706    740.24445    296.25048  0.006935984 
        57.8    497.24281    740.24445    296.71007 0.0069347258 
        57.9    497.84277    740.24445    297.14488 0.0069328934 
          58    487.92657    740.24445    297.62146 0.0069320404 
        58.1    489.55243    740.24445    298.20624 0.0069337062 
        58.2    495.35475    740.24445    298.78921 0.0069353241 
        58.3    491.92499    740.24445     299.1483  0.006931749 
        58.4    505.89286    740.24445    299.73287 0.0069334017 
        58.5    502.30727    740.24445    300.32905 0.0069353171 
        58.6    487.93292    740.24445    300.96236 0.0069380817 
        58.7    501.75399    740.24445    301.53319 0.0069393991 
        58.8     504.4776    740.24445    302.10004 0.0069406205 
        58.9      493.354    740.24445    302.60828 0.0069404935 
          59    491.57336    740.24445    302.94312 0.0069363966 
        59.1    495.82288    740.24445    303.42871 0.0069357595 
        59.2    505.25675    740.24445    304.20243 0.0069416996 
        59.3    501.42431    740.24445    304.89706 0.0069458177 
        59.4    500.40816    740.24445    305.29913 0.0069432684 
        59.5    509.12105    740.24445    305.71535 0.0069410492 
        59.6    497.82716    740.24445    306.19275 0.0069402238 
        59.7    496.86325    740.24445    306.61007 0.0069380419 
        59.8    498.02362    740.24445    307.04734 0.0069363181 
        59.9    497.09984    740.24445    307.57524 0.0069366437 
          60     498.4401    740.24445    308.01903 0.0069350746 
        60.1    503.14049    740.24445      308.712 0.0069391116 
        60.2    505.98712    740.24445    309.20261 0.0069385943 
        60.3    500.78359    740.24445    309.68305 0.0069378509 
        60.4    495.84427    740.24445    310.28371 0.0069397988 
        60.5    506.15345    740.24445    310.99364   0.00694418 
        60.6    501.56404    740.24445    311.55992 0.0069453446 
        60.7    496.61207    740.24445    312.00763 0.0069438664 
        60.8    504.42229    740.24445    312.60161 0.0069456432 
        60.9     503.2923    740.24445    313.16549 0.0069467464 
          61    499.05355    740.24445    313.57808 0.0069444955 
        61.1    496.28492    740.24445    314.00163 0.0069424944 
        61.2    501.86609    740.24445    314.53319 0.0069428838 
        61.3    494.22608    740.24445    314.94118 0.0069405489 
        61.4    507.12933    740.24445    315.44164  0.006940256 
        61.5    500.44918    740.24445    316.04064 0.0069421287 
        61.6    507.21371    740.24445    316.56837 0.0069424322 
        61.7    504.06771    740.24445    316.96361  0.006939834 
        61.8    499.32607    740.24445    317.69604 0.0069446149 
        61.9    499.29037    740.24445    318.28426 0.0069462332 
          62    500.28974    740.24445    318.98511 0.0069503001 
        62.1    500.16724    740.24445    319.41537 0.0069484678 
        62.2    510.32625    740.24445     319.8971 0.0069477593 
        62.3    496.29037    740.24445     320.4813 0.0069492749 
        62.4    495.04174    740.24445    320.93454 0.0069479504 
        62.5    492.98034    740.24445     321.4844 0.0069487186 
        62.6    497.90156    740.24445    321.90612  0.006946719 
        62.7    504.33846    740.24445    322.31609 0.0069444728 
        62.8    500.94756    740.24445    322.80633 0.0069439605 
        62.9    496.88781    740.24445    323.32533 0.0069440673 
          63    487.69942    740.24445    323.77211 0.0069426254 
        63.1    496.21961    740.24445    324.31104 0.0069431607 
        63.2    498.98207    740.24445    324.76367 0.0069418497 
        63.3    491.05565    740.24445    325.22715 0.0069407742 
        63.4    498.10528    740.24445     325.7144 0.0069402088 
        63.5     501.4768    740.24445    326.25426 0.0069407644 
        63.6    493.98563    740.24445    326.69104 0.0069391288 
        63.7    508.10954    740.24445    327.15055 0.0069379804 
        63.8    502.06995    740.24445    327.69736 0.0069386839 
        63.9    496.07728    740.24445    328.24323 0.0069393655 
          64    495.95253    740.24445    328.72094 0.0069386062 
        64.1    499.93891    740.24445    329.23767 0.0069386715 
        64.2     501.2918    740.24445    329.79426 0.0069395755 
        64.3    500.52668    740.24445    330.26368 0.0069386452 
        64.4    495.00761    740.24445    330.91044 0.0069414379 
        64.5     497.1943    740.24445    331.42623 0.0069414787 
        64.6    496.72732    740.24445    332.02657 0.0069432877 
        64.7    493.74254    740.24445    332.66665 0.0069459208 
        64.8    501.02477    740.24445    333.12608 0.0069447796 
        64.9    495.75026    740.24445    333.68637 0.0069457413 
          65    495.58223    740.24445    334.28863 0.0069475725 
        65.1    493.02202    740.24445    334.95402 0.0069507081 
        65.2    503.13786    740.24445    335.43731 0.0069500608 
        65.3    503.14424    740.24445    335.84526 0.0069478572 
        65.4    496.00061    740.24445    336.35697 0.0069478033 
        65.5    500.27468    740.24445    336.91779 0.0069487627 
        65.6    495.82984    740.24445    337.41992 0.0069485105 
        65.7    503.47959    740.24445    338.03443 0.0069505698 
        65.8    493.69643    740.24445    338.47173 0.0069489846 
        65.9    497.06391    740.24445    339.09757 0.0069512691 
          66    498.32396    740.24445    339.51752 0.0069493326 
        66.1    501.00794    740.24445    339.92011 0.0069470471 
        66.2    505.15555    740.24445    340.37403 0.0069458159 
        66.3    502.77067    740.24445    341.01892 0.0069484796 
        66.4    495.19381    740.24445    341.61029 0.0069500463 
        66.5    501.03416    740.24445    342.08368 0.0069492118 
        66.6     500.2374    740.24445    342.60551 0.0069493623 
        66.7     496.6657    740.24445    343.06531  0.006948256 
        66.8    499.11377    740.24445    343.67186 0.0069501208 
        66.9    499.95379    740.24445    344.13513 0.0069490866 
          67    507.86111    740.24445    344.83037  0.006952733 
        67.1    499.25276    740.24445    345.36621 0.0069531591 
        67.2    492.92693    740.24445    345.86954 0.0069529304 
        67.3    497.32196    740.24445    346.35183 0.0069522801 
        67.4    494.99945    740.24445    346.75037 0.0069499531 
        67.5    498.57246    740.24445    347.28026 0.0069502618 
        67.6    493.47602    740.24445    347.75134 0.0069493943 
        67.7    507.82715    740.24445    348.21211 0.0069483237 
        67.8    502.67799    740.24445    348.70244 0.0069478451 
        67.9    477.08156    740.24445    349.32863 0.0069500711 
          68     493.4118    740.24445    349.99531 0.0069530947 
        68.1    504.64814    740.24445    350.47019 0.0069523049 
        68.2    496.35452    740.24445    350.99284 0.0069524635 
        68.3    502.84713    740.24445    351.46583 0.0069516396 
        68.4    502.80033    740.24445    351.90715 0.0069501925 
        68.5    497.06758    740.24445    352.48599 0.0069514617 
        68.6    488.46887    740.24445    352.87433 0.0069489756 
        68.7    499.93448    740.24445    353.43561 0.0069498975 
        68.8    504.45851    740.24445    353.88331 0.0069485867 
        68.9    502.32496    740.24445    354.35592 0.0069477681 
          69    501.22761    740.24445    354.79955 0.0069463843 
        69.1    500.25699    740.24445    355.34132 0.0069469234 
        69.2    496.56754    740.24445    355.76439 0.0069451435 
        69.3    491.13012    740.24445    356.24621  0.006944514 
        69.4    497.88003    740.24445    356.72185 0.0069437661 
        69.5    498.27066    740.24445     357.2587 0.0069442101 
        69.6    500.95075    740.24445    357.75168 0.0069438012 
        69.7    499.43375    740.24445    358.26523 0.0069437924 
        69.8    495.84706    740.24445    358.82371  0.006944653 
        69.9    496.95294    740.24445    359.32699 0.0069444445 
          70    498.23129    740.24445    359.90401 0.0069456594 
        70.1    498.91002    740.24445    360.26502 0.0069427083 
        70.2    506.17568    740.24445    360.72409 0.0069416527 
        70.3    493.90191    740.24445    361.23036  0.006941507 
        70.4    494.01487    740.24445    361.76636 0.0069419321 
        70.5    496.84029    740.24445    362.29468  0.006942209 
        70.6    494.86151    740.24445    362.85314 0.0069430617 
        70.7    504.55807    740.24445    363.35725 0.0069428735 
        70.8    505.26952    740.24445    363.98645 0.0069450727 
        70.9    494.23998    740.24445    364.48081 0.0069446965 
          71    495.72458    740.24445    365.01003 0.0069449847 
        71.1    495.59174    740.24445    365.55741  0.006945617 
        71.2    496.00297    740.24445    366.06817 0.0069455527 
        71.3      490.328    740.24445    366.54723 0.0069448882 
        71.4    499.76636    740.24445     367.1377 0.0069463332 
        71.5    499.32419    740.24445    367.67156 0.0069467047 
        71.6    499.64637    740.24445    368.03169 0.0069437974 
        71.7    489.42723    740.24445    368.66674 0.0069460777 
        71.8    499.06257    740.24445    369.16166 0.0069457153 
        71.9    500.06438    740.24445    369.62446 0.0069447505 
          72    495.71358    740.24445    370.12066 0.0069444151 
        72.1    501.34716    740.24445     370.5328 0.0069425055 
        72.2    502.92672    740.24445    370.97177 0.0069411032 
        72.3    493.52049    740.24445    371.44187 0.0069402864 
        72.4    495.24787    740.24445    371.82768 0.0069378992 
        72.5    504.03497    740.24445    372.39715 0.0069389408 
        72.6    498.82885    740.24445    372.90066 0.0069387521 
        72.7    499.17431    740.24445    373.32368 0.0069370682 
        72.8    495.54585    740.24445    373.78479 0.0069360959 
        72.9    501.41432    740.24445    374.54446 0.0069406588 
          73     504.0614    740.24445    375.01655 0.0069398873 
        73.1    503.06661    740.24445    375.47668 0.0069388968 
        73.2    489.19554    740.24445     375.9615 0.0069383649 
        73.3    501.97265    740.24445      376.319 0.0069354878 
        73.4    505.01125    740.24445     376.7379 0.0069337486 
        73.5    504.74585    740.24445    377.40904 0.0069366502 
        73.6    497.05389    740.24445    377.99784 0.0069380328 
        73.7    490.20426    740.24445    378.55087 0.0069387558 
        73.8    498.26638    740.24445    379.14791 0.0069402824 
        73.9    499.19566    740.24445    379.73756 0.0069416698 
          74    500.11991    740.24445    380.15104 0.0069398375 
        74.1    499.45263    740.24445    380.60246 0.0069387019 
        74.2    502.36788    740.24445    381.05814 0.0069376467 
        74.3    501.09327    740.24445    381.54465 0.0069371549 
        74.4    498.45163    740.24445    382.06786 0.0069373309 
        74.5    502.92617    740.24445    382.54244 0.0069366246 
        74.6    504.06678    740.24445    383.03631 0.0069362695 
        74.7    498.94362    740.24445    383.61403 0.0069374318 
        74.8    497.51527    740.24445    384.13454 0.0069375575 
        74.9    505.13696    740.24445    384.71998 0.0069388543 
          75    506.92519    740.24445     385.2663 0.0069394428 
        75.1      497.193    740.24445    385.74044 0.0069387314 
        75.2    495.26428    740.24445     386.2504 0.0069386653 
        75.3    499.63717    740.24445    386.76329 0.0069386521 
        75.4    499.99044    740.24445     387.1994 0.0069372631 
        75.5    497.38782    740.24445    387.59416  0.006935138 
        75.6    496.43397    740.24445    388.02884  0.006933732 
        75.7    495.32667    740.24445    388.56373 0.0069341178 
        75.8     504.2436    740.24445    389.16175 0.0069356279 
        75.9    494.53731    740.24445    389.84165 0.0069385913 
          76     504.3918    740.24445    390.23733 0.0069364946 
        76.1    495.00772    740.24445     390.6986  0.006935568 
        76.2    499.33233    740.24445    391.21223 0.0069355722 
        76.3    503.33228    740.24445    391.84613 0.0069377056 
        76.4    498.27621    740.24445    392.24807 0.0069357318 
        76.5     496.0969    740.24445    392.69496 0.0069345572 
        76.6    495.84278    740.24445    393.36925 0.0069373959 
        76.7    496.18912    740.24445     393.8464 0.0069367549 
        76.8    490.21755    740.24445    394.36693 0.0069368789 
        76.9    493.98413    740.24445     394.8405 0.0069361774 
          77    508.69998    740.24445    395.27906 0.0069348636 
        77.1    495.50041    740.24445    395.82168 0.0069353765 
        77.2    492.97649    740.24445    396.31229  0.006934978 
        77.3    496.07098    740.24445    396.81657 0.0069348192 
        77.4    493.50712    740.24445     397.2861 0.0069340545 
        77.5    499.59643    740.24445    397.73989 0.0069330173 
        77.6    500.80472    740.24445    398.40457 0.0069356542 
        77.7    504.64328    740.24445    398.91391 0.0069355835 
        77.8    499.94547    740.24445    399.47775 0.0069364592 
        77.9    506.21669    740.24445    400.11759 0.0069386506 
          78     498.8714    740.24445    400.59474 0.0069380189 
        78.1    497.53984    740.24445    401.04699  0.006936958 
        78.2    501.61284    740.24445    401.45038 0.0069350558 
        78.3    501.38861    740.24445    402.04482 0.0069364546 
        78.4    507.37963    740.24445    402.63025 0.0069376947 
        78.5    500.74085    740.24445    403.11085 0.0069371273 
        78.6    501.31872    740.24445    403.65007 0.0069375692 
        78.7     503.2715    740.24445    404.12209 0.0069368564 
        78.8     498.1754    740.24445    404.69608 0.0069378934 
        78.9     493.2702    740.24445    405.22697 0.0069381898 
          79    505.39147    740.24445    405.65208 0.0069366767 
        79.1    503.21986    740.24445    406.17523 0.0069368418 
        79.2      497.927    740.24445    406.75348 0.0069379463 
        79.3    502.62845    740.24445    407.44878 0.0069410421 
        79.4    493.17634    740.24445    407.84136 0.0069389795 
        79.5    497.00613    740.24445    408.23592 0.0069369558 
        79.6    502.68068    740.24445    408.68047 0.0069357855 
        79.7    500.82704    740.24445    409.11927 0.0069345208 
        79.8    494.21401    740.24445    409.75516 0.0069365957 
        79.9    496.72326    740.24445    410.33802 0.0069377688 
          80    498.26446    740.24445    410.88377 0.0069383122 
        80.1    489.07357    740.24445    411.38549 0.0069381117 
        80.2    497.16534    740.24445    411.97473 0.0069393861 
        80.3    500.69374    740.24445    412.41479 0.0069381475 
        80.4     501.5184    740.24445    412.97022 0.0069388504 
        80.5    499.89928    740.24445    413.48205   0.00693882 
        80.6    500.37301    740.24445    413.96043  0.006938229 
        80.7    502.23432    740.24445     414.3929 0.0069368708 
        80.8    497.27738    740.24445    414.86207 0.0069361297 
        80.9    496.45489    740.24445     415.3746 0.0069361145 
          81     495.0438    740.24445    415.89574  0.006936243 
        81.1    500.89104    740.24445     416.4353 0.0069366778 
        81.2    497.08077    740.24445    416.94085 0.0069365458 
        81.3    502.06869    740.24445     417.3119 0.0069341792 
        81.4    501.01476    740.24445    417.86288 0.0069348046 
        81.5    490.49761    740.24445    418.32284 0.0069339196 
        81.6     498.4272    740.24445    418.74658 0.0069324373 
        81.7    495.60649    740.24445     419.1913 0.0069313055 
        81.8    500.70953    740.24445     419.7199 0.0069315618 
        81.9    504.32634    740.24445    420.17584 0.0069306188 
          82     501.2951    740.24445    420.73117 0.0069313156 
        82.1    501.38885    740.24445    421.21641 0.0069308575 
        82.2    491.01924    740.24445    421.68149  0.006930069 
        82.3    499.04363    740.24445     422.1685 0.0069296426 
        82.4    497.36126    740.24445    422.59621 0.0069282448 
        82.5     501.3736    740.24445    423.15903  0.006929063 
        82.6    504.44485    740.24445    423.53658  0.006926849 
        82.7    503.87607    740.24445    424.05355 0.0069269178 
        82.8    497.47121    740.24445    424.53087 0.0069263396 
        82.9    487.99152    740.24445    424.95776 0.0069249409 
          83    507.46146    740.24445    425.42277  0.006924166 
        83.1     508.5077    740.24445      425.851 0.0069227953 
        83.2    500.92893    740.24445    426.35416 0.0069226443 
        83.3    494.52478    740.24445    426.83542 0.0069221386 
        83.4     497.8937    740.24445    427.35151 0.0069221982 
        83.5    501.82175    740.24445    427.75916 0.0069205033 
        83.6    494.31001    740.24445    428.25178 0.0069201855 
        83.7    501.25058    740.24445    428.64001 0.0069181837 
        83.8    504.72606    740.24445     429.1264  0.006917769 
        83.9     500.4855    740.24445     429.6355  0.006917721 
          84    499.44582    740.24445    430.10337 0.0069170099 
        84.1    504.01685    740.24445    430.60272 0.0069168063 
        84.2    498.29457    740.24445     431.1356  0.006917141 
        84.3     499.4939    740.24445    431.87432 0.0069207737 
        84.4    495.59351    740.24445    432.33711 0.0069199811 
        84.5    488.67909    740.24445    432.88215 0.0069205053 
        84.6    497.38747    740.24445    433.28425 0.0069187458 
        84.7    506.69037    740.24445    433.74028 0.0069178507 
        84.8    495.41507    740.24445    434.19868 0.0069169954 
        84.9    493.34072    740.24445    434.86227  0.006919407 
          85    500.92411    740.24445    435.39113 0.0069196718 
        85.1    498.87681    740.24445    435.86261 0.0069190249 
        85.2    503.78232    740.24445    436.40883 0.0069195647 
        85.3    494.74179    740.24445    437.01532 0.0069210577 
        85.4    494.44194    740.24445    437.71057 0.0069239512 
        85.5    499.91581    740.24445    438.31697 0.0069254343 
        85.6    499.10093    740.24445    438.85941 0.0069259043 
        85.7    492.11024    740.24445    439.31081 0.0069249382 
        85.8    496.89412    740.24445    439.79778 0.0069245346 
        85.9    503.13002    740.24445     440.3898 0.0069257837 
          86    497.05479    740.24445    440.93475 0.0069262907 
        86.1    490.54858    740.24445    441.54794 0.0069278671 
        86.2     498.7459    740.24445     442.0934 0.0069283786 
        86.3    497.43646    740.24445    442.62485 0.0069286693 
        86.4    500.79677    740.24445    443.14922 0.0069288489 
        86.5    499.44294    740.24445    443.67323 0.0069290223 
        86.6    494.45078    740.24445    444.31996 0.0069311096 
        86.7    498.21726    740.24445    444.76498 0.0069300494 
        86.8    499.30999    740.24445    445.29164 0.0069302621 
        86.9    494.92155    740.24445     445.8172 0.0069304572 
          87    505.00863    740.24445    446.58606 0.0069344298 
        87.1    500.65804    740.24445    447.03424 0.0069334195 
        87.2      502.485    740.24445    447.42195 0.0069314746 
        87.3     493.6531    740.24445    447.92046 0.0069312489 
        87.4     505.5988    740.24445    448.35893 0.0069300956 
        87.5    494.08491    740.24445    448.85047 0.0069297645 
        87.6    498.74481    740.24445     449.3593 0.0069297005 
        87.7    493.42857    740.24445    449.89724 0.0069300852 
        87.8    502.94841    740.24445    450.40679 0.0069300322 
        87.9    498.85916    740.24445    450.90884 0.0069298641 
          88    501.88429    740.24445    451.43763 0.0069301067 
        88.1    502.60242    740.24445    451.86015 0.0069287194 
        88.2    500.02866    740.24445    452.32338 0.0069279587 
        88.3    505.29168    740.24445    452.76786 0.0069269129 
        88.4    496.59388    740.24445    453.16239 0.0069251061 
        88.5    503.07056    740.24445    453.63683 0.0069245232 
        88.6    501.23591    740.24445    454.13711 0.0069243356 
        88.7    496.41983    740.24445     454.5847  0.006923346 
        88.8    499.09977    740.24445     455.2009 0.0069249236 
        88.9     499.4574    740.24445    455.69381 0.0069246242 
          89    494.93446    740.24445    456.22577 0.0069249182 
        89.1    501.33986    740.24445    456.96034 0.0069282834 
        89.2    500.65376    740.24445     457.3574 0.0069265296 
        89.3    500.10558    740.24445    457.81123 0.0069256386 
        89.4    503.02079    740.24445    458.36442 0.0069262509 
        89.5    496.36301    740.24445    458.93926 0.0069271886 
        89.6    494.26632    740.24445      459.314 0.0069251074 
        89.7     503.1973    740.24445    459.86262 0.0069256495 
        89.8    503.21554    740.24445    460.31026 0.0069246712 
        89.9     501.6517    740.24445    460.87501 0.0069254549 
          90    496.76856    740.24445    461.39005 0.0069254908 
        90.1    491.54118    740.24445    461.83922 0.0069245389 
        90.2    499.57365    740.24445    462.58183 0.0069279839 
        90.3    500.54951    740.24445    463.00232 0.0069266024 
        90.4    490.95202    740.24445    463.58377 0.0069276292 
        90.5    494.68464    740.24445    464.29514  0.006930593 
        90.6    500.45028    740.24445    464.74215 0.0069296086 
        90.7    502.37191    740.24445    465.16307 0.0069282378 
        90.8    493.66896    740.24445    465.74388 0.0069292487 
        90.9    496.03807    740.24445    466.17791 0.0069280761 
          91    492.34634    740.24445    466.63269  0.006927214 
        91.1    493.80866    740.24445     467.1592 0.0069274176 
        91.2    498.92739    740.24445    467.69191 0.0069277126 
        91.3    501.01111    740.24445    468.18694 0.0069274493 
        91.4    498.74685    740.24445    468.67275 0.0069270504 
        91.5    488.81882    740.24445    469.02475 0.0069246768 
        91.6    499.88523    740.24445    469.42924 0.0069230825 
        91.7    500.39438    740.24445    469.98536 0.0069237253 
        91.8    498.18371    740.24445    470.49348 0.0069236605 
        91.9    498.99523    740.24445     470.9326 0.0069225816 
          92    499.05646    740.24445    471.44722 0.0069226136 
        92.1    495.86936    740.24445    472.06053 0.0069240931 
        92.2    501.81989    740.24445    472.57994 0.0069241935 
        92.3    503.00796    740.24445     473.0664 0.0069238116 
        92.4    500.06721    740.24445    473.75628 0.0069264044 
        92.5    494.54246    740.24445    474.27942 0.0069265566 
        92.6    505.62017    740.24445     474.7281 0.0069256222 
        92.7    500.25391    740.24445    475.23014 0.0069254673 
        92.8     498.8688    740.24445    475.65929 0.0069242517 
        92.9    498.93131    740.24445    476.12357 0.0069235496 
          93     500.6925    740.24445    476.61604 0.0069232585 
        93.1    503.64996    740.24445    477.18865 0.0069241308 
        93.2    501.78902    740.24445    477.66961 0.0069236729 
        93.3    496.88914    740.24445    478.19235 0.0069238209 
        93.4    503.39499    740.24445     478.7192 0.0069240279 
        93.5    501.74906    740.24445    479.41298 0.0069266464 
        93.6    500.79684    740.24445    479.99731 0.0069276797 
        93.7    495.08385    740.24445    480.53027   0.00692797 
        93.8    494.40842    740.24445    481.07567  0.006928439 
        93.9    495.57182    740.24445    481.52215 0.0069274837 
          94    506.14359    740.24445    482.15625  0.006929227 
        94.1    497.77374    740.24445    482.66837 0.0069292153 
        94.2    499.80663    740.24445    483.26895 0.0069304722 
        94.3    496.50402    740.24445    483.88462 0.0069319427 
        94.4    500.81766    740.24445    484.42296 0.0069323034 
        94.5    494.90356    740.24445    484.95179 0.0069325275 
        94.6    486.71268    740.24445    485.56197 0.0069339126 
        94.7     497.6238    740.24445    486.12717 0.0069346533 
        94.8    502.47903    740.24445    486.54882 0.0069333468 
        94.9    498.77263    740.24445    486.96644 0.0069319857 
          95    495.78904    740.24445    487.46451 0.0069317715 
        95.1     500.0265    740.24445     488.0073  0.006932193 
        95.2    498.61989    740.24445    488.47998 0.0069316187 
        95.3    498.95288    740.24445     488.9926 0.0069316117 
        95.4    496.76477    740.24445    489.45846 0.0069309427 
        95.5    500.12754    740.24445    490.01504 0.0069315582 
        95.6    501.56518    740.24445    490.49778 0.0069311292 
        95.7    499.56056    740.24445    490.97773 0.0069306616 
        95.8    502.60891    740.24445     491.3767 0.0069290532 
        95.9    489.01946    740.24445    491.79286 0.0069276901 
          96    495.51251    740.24445    492.29268 0.0069275073 
        96.1    496.48077    740.24445     492.8868 0.0069286502 
        96.2    500.19998    740.24445    493.41577 0.0069288761 
        96.3    500.61317    740.24445    493.95616 0.0069292617 
        96.4    493.11987    740.24445    494.40581 0.0069283747 
        96.5    501.63987    740.24445    494.87486 0.0069277614 
        96.6    507.95213    740.24445    495.30751 0.0069266401 
        96.7     496.4365    740.24445    495.98109 0.0069288871 
        96.8    495.37569    740.24445    496.47351 0.0069286011 
        96.9    502.67872    740.24445    497.03379 0.0069292619 
          97    498.47033    740.24445    497.54071 0.0069291782 
        97.1    490.65807    740.24445     497.9636 0.0069279254 
        97.2    500.25558    740.24445     498.5153 0.0069284656 
        97.3    499.89984    740.24445    498.95348 0.0069274286 
        97.4    499.35835    740.24445    499.42821 0.0069269006 
        97.5    504.33525    740.24445    500.01266 0.0069278938 
        97.6    504.41126    740.24445    500.69397 0.0069302257 
        97.7    492.35615    740.24445    501.22613 0.0069304907 
        97.8    495.76291    740.24445    501.68291 0.0069297136 
        97.9    502.25236    740.24445     502.2114 0.0069299279 
          98    497.81515    740.24445    502.86792 0.0069319065 
        98.1    498.11231    740.24445    503.43872 0.0069327007 
        98.2    496.81921    740.24445    503.91061 0.0069321325 
        98.3    496.23282    740.24445    504.55369 0.0069339181 
        98.4    497.86384    740.24445    505.11052  0.006934516 
        98.5    498.76441    740.24445    505.58307 0.0069339568 
        98.6    494.69907    740.24445    506.21662 0.0069356046 
        98.7    501.68983    740.24445    506.86206 0.0069374117 
        98.8    491.32831    740.24445    507.29961 0.0069363727 
        98.9    493.98454    740.24445    507.92296 0.0069378738 
          99    499.15052    740.24445    508.42248 0.0069376821 
        99.1    500.48868    740.24445    508.86186 0.0069366708 
        99.2    498.27303    740.24445     509.3946 0.0069369331 
        99.3    492.98178    740.24445     509.9584 0.0069376174 
        99.4    499.49934    740.24445     510.4185 0.0069368908 
        99.5    500.69833    740.24445    510.90323 0.0069365002 
        99.6    495.90092    740.24445    511.44298 0.0069368567 
        99.7    503.00991    740.24445    512.05172 0.0069381473 
        99.8    506.95582    740.24445    512.73014 0.0069403783 
        99.9    509.92531    740.24445    513.35659 0.0069419022 
         100    500.51006    740.24445     514.0583 0.0069444398 
       100.1    494.86956    740.24445     514.5126 0.0069436333 
       100.2    497.03672    740.24445    514.92399 0.0069422499 
       100.3    494.97487    740.24445    515.37562 0.0069414112 
       100.4    499.91252    740.24445    515.90417 0.0069416092 
       100.5    508.50595    740.24445    516.48863 0.0069425584 
       100.6    505.23131    740.24445    516.92989 0.0069415828 
       100.7    494.24008    740.24445    517.58749 0.0069435112 
       100.8    499.24348    740.24445    518.17025 0.0069444328 
       100.9    497.06232    740.24445    518.77712 0.0069456755 
         101    501.04234    740.24445    519.29142 0.0069456775 
       101.1    499.18661    740.24445    519.71529 0.0069444711 
       101.2    498.05027    740.24445    520.18191 0.0069438379 
       101.3    501.85341    740.24445    520.78934 0.0069450836 
       101.4    495.67848    740.24445    521.22525 0.0069440419 
       101.5    491.54315    740.24445     521.6657 0.0069430626 
       101.6    494.67262    740.24445    522.16026 0.0069428047 
       101.7    508.58161    740.24445    522.70532 0.0069432181 
       101.8    504.06891    740.24445    523.32106 0.0069445686 
       101.9    501.86605    740.24445     523.9566  0.006946179 
         102     494.8102    740.24445    524.44343 0.0069458167 
       102.1    503.07616    740.24445    525.12227 0.0069479956 
       102.2    490.16978    740.24445    525.54521 0.0069467877 
       102.3     492.3847    740.24445    525.95262  0.006945377 
       102.4    500.91297    740.24445    526.42862  0.006944874 
       102.5    495.85907    740.24445     526.9585 0.0069450821 
       102.6    503.28081    740.24445    527.43204 0.0069445481 
       102.7    500.98846    740.24445     527.9062 0.0069440231 
       102.8    495.82432    740.24445    528.51764 0.0069453032 
       102.9    493.64831    740.24445    529.05747 0.0069456407 
         103    507.35093    740.24445    529.55278 0.0069453936 
       103.1    501.21824    740.24445    530.00235 0.0069445478 
       103.2    500.13006    740.24445    530.49611 0.0069442819 
       103.3    506.43056    740.24445    530.99366 0.0069440663 
       103.4    502.12747    740.24445    531.43342 0.0069430959 
       103.5    494.04861    740.24445    531.80818 0.0069412791 
       103.6    483.63244    740.24445    532.21833 0.0069399271 
       103.7    501.52433    740.24445    532.66016 0.0069389905 
       103.8    503.55097    740.24445    533.10513 0.0069380967 
       103.9    497.84215    740.24445    533.55648 0.0069372874 
         104    499.41008    740.24445    534.00645 0.0069364618 
       104.1    495.55215    740.24445     534.5109 0.0069363449 
       104.2    500.67468    740.24445    535.00319 0.0069360704 
       104.3    498.38018    740.24445    535.48377 0.0069356448 
       104.4    497.16283    740.24445    535.99756 0.0069356497 
       104.5    501.70613    740.24445    536.51631 0.0069357188 
       104.6    503.73799    740.24445    537.01375 0.0069355125 
       104.7    505.89672    740.24445    537.56786 0.0069360378 
       104.8    500.33576    740.24445    538.06604 0.0069358412 
       104.9    491.17773    740.24445    538.54892 0.0069354479 
         105    496.56145    740.24445    539.06794 0.0069355203 
       105.1    497.57202    740.24445    539.66871 0.0069366433 
       105.2    500.18573    740.24445     540.0878 0.0069354312 
       105.3    502.30578    740.24445    540.56449 0.0069349604 
       105.4     493.8373    740.24445    541.10617 0.0069353233 
       105.5    498.51045    740.24445    541.60794 0.0069351746 
       105.6    502.50997    740.24445    542.03164 0.0069340276 
       105.7    493.21333    740.24445    542.46012 0.0069329437 
       105.8    503.35007    740.24445    542.96636 0.0069328547 
       105.9    501.19837    740.24445    543.44537 0.0069324185 
         106    497.19185    740.24445    543.96699 0.0069325262 
       106.1    504.64498    740.24445    544.37282 0.0069311594 
       106.2     490.9514    740.24445    544.78288  0.006929849 
       106.3    496.31787    740.24445    545.20702 0.0069287201 
       106.4    505.60256    740.24445    545.86607 0.0069305757 
       106.5    505.15931    740.24445    546.40752 0.0069309361 
       106.6    496.52685    740.24445    546.92204 0.0069309547 
       106.7    495.36648    740.24445    547.39505 0.0069304476 
       106.8    497.66883    740.24445     547.9046 0.0069304037 
       106.9       494.93    740.24445    548.44906  0.006930801 
         107    493.02322    740.24445    548.94167  0.006930543 
       107.1    497.74566    740.24445    549.40098 0.0069298654 
       107.2    497.98924    740.24445    549.87098 0.0069293238 
       107.3    497.61873    740.24445    550.50024 0.0069307883 
       107.4    490.71812    740.24445    550.98873 0.0069304793 
       107.5    493.23335    740.24445    551.53503 0.0069308975 
       107.6    497.17064    740.24445    551.97758 0.0069300123 
       107.7    501.43426    740.24445    552.43997 0.0069293776 
       107.8    504.91917    740.24445    552.91176 0.0069288619 
       107.9    498.58023    740.24445    553.37893 0.0069282893 
         108     490.9731    740.24445    553.82686 0.0069274771 
       108.1    492.77424    740.24445    554.27591 0.0069266804 
       108.2    497.13431    740.24445    554.64879 0.0069249341 
       108.3    492.27623    740.24445    555.10548 0.0069242366 
       108.4    494.14795    740.24445    555.73855 0.0069257384 
       108.5    499.57996    740.24445    556.39911 0.0069275797 
       108.6    501.00339    740.24445     556.9426 0.0069279613 
       108.7    500.25472    740.24445    557.44925 0.0069278844 
       108.8    495.90645    740.24445     557.8938 0.0069270366 
       108.9    500.53838    740.24445    558.37501 0.0069266451 
         109     500.9677    740.24445    558.84957 0.0069261718 
       109.1    489.70205    740.24445    559.29266 0.0069253098 
       109.2    494.06284    740.24445    559.87103 0.0069261229 
       109.3    499.25887    740.24445     560.4926 0.0069274685 
       109.4    502.95096    740.24445    561.02596 0.0069277223 
       109.5    500.21761    740.24445    561.64707 0.0069290584 
       109.6     497.1105    740.24445    562.12044 0.0069285709 
       109.7    499.70692    740.24445    562.58015  0.006927916 
       109.8    499.08044    740.24445    563.02934  0.006927133 
       109.9    508.65095    740.24445    563.52725 0.0069269503 
         110    498.62524    740.24445    563.92671 0.0069255588 
       110.1    498.83085    740.24445    564.47598 0.0069260079 
       110.2     494.7619    740.24445    565.05552 0.0069268275 
       110.3    505.69805    740.24445    565.56686 0.0069268101 
       110.4    498.76627    740.24445    566.03897 0.0069263127 
       110.5    499.24857    740.24445    566.55979 0.0069264118 
       110.6    499.49677    740.24445    567.05882 0.0069262446 
       110.7    502.38324    740.24445    567.54788 0.0069259559 
       110.8    499.76182    740.24445     567.9294 0.0069243567 
       110.9    498.15754    740.24445    568.46128 0.0069245919 
         111     498.4504    740.24445    568.87414 0.0069233781 
       111.1    499.39575    740.24445    569.37433 0.0069232285 
       111.2    495.19386    740.24445     569.8398 0.0069226573 
       111.3    495.08846    740.24445     570.3794 0.0069229868 
       111.4    493.73399    740.24445    570.83474 0.0069222941 
       111.5    499.94887    740.24445    571.41127 0.0069230709 
       111.6    495.08166    740.24445    571.87604 0.0069224934 
       111.7    501.70189    740.24445     572.3419 0.0069219301 
       111.8    505.33811    740.24445    572.81134 0.0069214111 
       111.9    493.91259    740.24445    573.39896 0.0069223197 
         112    492.36273    740.24445    573.93241 0.0069225734 
       112.1    500.91215    740.24445    574.46613 0.0069228298 
       112.2    499.17843    740.24445    574.87551 0.0069215888 
       112.3    495.84947    740.24445    575.48552 0.0069227633 
       112.4    498.67901    740.24445    576.00184 0.0069228098 
       112.5    488.87325    740.24445    576.46298 0.0069221935 
       112.6    499.86138    740.24445    576.96795 0.0069221043 
       112.7    495.78777    740.24445    577.56169 0.0069230793 
       112.8    498.31457    740.24445    578.16843 0.0069242082 
       112.9    493.18588    740.24445    578.68911 0.0069243053 
         113    500.83554    740.24445    579.10581 0.0069231592 
       113.1    501.85674    740.24445    579.73292 0.0069245284 
       113.2    506.75757    740.24445     580.2694 0.0069248135 
       113.3    506.90694    740.24445    580.71477 0.0069240119 
       113.4    498.34036    740.24445    581.17887 0.0069234347 
       113.5    493.49865    740.24445    581.62023  0.006922588 
       113.6    497.71388    740.24445    582.12043 0.0069224424 
       113.7    501.28798    740.24445      582.643 0.0069225628 
       113.8    504.05135    740.24445    583.06952 0.0069215429 
       113.9    506.64134    740.24445    583.57658   0.00692148 
         114    504.72888    740.24445    584.07976 0.0069213712 
       114.1    498.43374    740.24445    584.64638 0.0069220138 
       114.2    504.77929    740.24445    585.18664 0.0069223434 
       114.3    507.10052    740.24445    585.73253 0.0069227389 
       114.4    496.22682    740.24445    586.26183 0.0069229379 
       114.5    503.16988    740.24445    586.75844 0.0069227508 
       114.6    505.38523    740.24445    587.26106 0.0069226349 
       114.7      495.645    740.24445    587.67234 0.0069214434 
       114.8    490.70375    740.24445    588.21294 0.0069217758 
       114.9    501.28887    740.24445    588.68863 0.0069213443 
         115    500.97753    740.24445    589.13954 0.0069206227 
       115.1    494.32001    740.24445    589.72619 0.0069214953 
       115.2    501.11031    740.24445    590.23235 0.0069214227 
       115.3    506.74162    740.24445    590.69166 0.0069208012 
       115.4    491.54843    740.24445      591.087 0.0069194318 
       115.5    498.01438    740.24445    591.64337 0.0069199484 
       115.6    499.61026    740.24445    592.33964 0.0069220989 
       115.7    499.30959    740.24445    592.74451 0.0069208434 
       115.8     492.3892    740.24445    593.30454 0.0069214001 
       115.9    497.24059    740.24445    593.79529 0.0069211482 
         116    502.66469    740.24445    594.32479 0.0069213482 
       116.1    497.67821    740.24445    594.77929 0.0069206751 
       116.2    499.82116    740.24445    595.19199 0.0069195172 
       116.3      494.558    740.24445    595.73031 0.0069198204 
       116.4     495.1137    740.24445    596.12457 0.0069184513 
       116.5    497.05512    740.24445    596.67549 0.0069189009 
       116.6    499.79733    740.24445    597.14497 0.0069184064 
       116.7    498.38389    740.24445    597.63283 0.0069181254 
       116.8    492.18127    740.24445    598.19545 0.0069187096 
       116.9    491.73662    740.24445    598.62047 0.0069177027 
         117    501.06506    740.24445    599.00657 0.0069162481 
       117.1    499.67527    740.24445    599.53067 0.0069163881 
       117.2     502.4242    740.24445    599.97067 0.0069155584 
       117.3    492.38971    740.24445    600.60171 0.0069169302 
       117.4    490.39539    740.24445    601.11285   0.00691692 
       117.5    497.97177    740.24445    601.65155 0.0069172268 
       117.6    503.78104    740.24445    602.16764 0.0069172733 
       117.7    498.11559    740.24445     602.5896 0.0069162393 
       117.8    494.74174    740.24445     603.0923  0.006916133 
       117.9    500.43288    740.24445    603.59556 0.0069160332 
         118    496.08128    740.24445    604.01444 0.0069149677 
       118.1    491.94957    740.24445    604.49596 0.0069146205 
       118.2     497.3027    740.24445    605.07585  0.006915398 
[...]
       146.9    497.75151    740.24445    754.29201 0.0069365345 
         147    496.05209    740.24445    754.86468 0.0069370785 
       147.1    497.14203    740.24445    755.45967 0.0069378268 
       147.2    505.67735    740.24445    755.97206 0.0069378159 
       147.3    496.16561    740.24445    756.75298 0.0069402679 
       147.4    493.24735    740.24445    757.31373 0.0069406986 
       147.5    499.75307    740.24445     757.7928 0.0069403807 
       147.6    499.18557    740.24445    758.36264  0.006940894 
       147.7    501.59542    740.24445    758.86849 0.0069408214 
       147.8    496.86543    740.24445    759.56632 0.0069425035 
       147.9    499.21742    740.24445    760.00984 0.0069418605 
         148    502.82096    740.24445    760.41671 0.0069408839 
       148.1    499.03739    740.24445    760.81832 0.0069398606 
       148.2     499.4863    740.24445    761.36459 0.0069401572 
       148.3    495.54101    740.24445    761.83944  0.006939803 
       148.4    508.00151    740.24445    762.34551 0.0069397334 
       148.5    492.41693    740.24445    762.79349 0.0069391354 
       148.6    493.24091    740.24445    763.27958 0.0069388848 
       148.7    501.26969    740.24445    763.83535 0.0069392674 
       148.8    503.88648    740.24445    764.40059 0.0069397356 
       148.9    496.14405    740.24445    764.85288 0.0069391783 
         149     493.8282    740.24445    765.40551 0.0069395316 
       149.1    496.85525    740.24445     766.0586 0.0069407945 
       149.2    495.36943    740.24445      766.577 0.0069408363 
       149.3    496.76034    740.24445    767.04199 0.0069403947 
       149.4    497.42138    740.24445    767.61687 0.0069409474 
       149.5    500.09273    740.24445    768.20021 0.0069415758 
       149.6    505.81418    740.24445    768.77447 0.0069421213 
       149.7    494.27308    740.24445    769.25844 0.0069418514 
       149.8    496.56826    740.24445     769.8604 0.0069426457 
       149.9    491.47106    740.24445    770.46608 0.0069434727 
         150    493.39709    740.24445    770.98044 0.0069434761 
       150.1    499.47196    740.24445    771.42105 0.0069428156 
       150.2    496.96947    740.24445    772.04419 0.0069437978 
       150.3    498.08848    740.24445    772.46923 0.0069429981 
       150.4     504.3042    740.24445    772.95849 0.0069427764 
       150.5    499.74733    740.24445    773.51353 0.0069431453 
       150.6     496.6645    740.24445    773.99951 0.0069428943 
       150.7     490.6678    740.24445    774.49881  0.006942763 
       150.8    492.92597    740.24445     774.9066 0.0069418122 
       150.9     499.5806    740.24445    775.45701 0.0069421394 
         151      501.119    740.24445     775.8999 0.0069415041 
       151.1    499.08207    740.24445    776.38963 0.0069412886 
       151.2    499.19628    740.24445    777.05418 0.0069426353 
       151.3    494.47492    740.24445    777.61107 0.0069430188 
       151.4    494.27168    740.24445    778.08211  0.006942636 
       151.5    507.51922    740.24445    778.60924 0.0069427537 
       151.6    491.79419    740.24445    779.12574 0.0069427766 
       151.7    494.86274    740.24445    779.57116 0.0069421664 
       151.8    503.43665    740.24445    780.02833 0.0069416617 
       151.9      506.284    740.24445    780.52708 0.0069415274 
         152    499.94079    740.24445    781.01988 0.0069413404 
       152.1    495.10107    740.24445    781.43347   0.00694045 
       152.2    497.46228    740.24445    781.90838 0.0069401052 
       152.3    504.58095    740.24445    782.35419 0.0069395027 
       152.4    499.69949    740.24445    782.86389 0.0069394673 
       152.5    496.59916    740.24445    783.37571 0.0069394507 
       152.6    500.31634    740.24445    783.94463 0.0069399396 
       152.7     496.8129    740.24445    784.51056 0.0069404015 
       152.8    495.31674    740.24445    785.06758  0.006940784 
       152.9    499.40028    740.24445    785.49448 0.0069400163 
         153     502.9638    740.24445    786.08127 0.0069406614 
       153.1    497.33304    740.24445    786.63114 0.0069409799 
       153.2    493.88294    740.24445    787.08294 0.0069404332 
       153.3    502.05286    740.24445    787.71251 0.0069414536 
       153.4    500.77589    740.24445    788.26975 0.0069418359 
       153.5    501.63916    740.24445    788.90903 0.0069429396 
       153.6    503.32839    740.24445    789.42736 0.0069429781 
       153.7    498.62065    740.24445    789.99026 0.0069434084 
       153.8    496.27983    740.24445    790.54968 0.0069438075 
       153.9    500.45528    740.24445    791.02594 0.0069434761 
         154    502.48439    740.24445    791.47671 0.0069429216 
       154.1    499.83872    740.24445    791.93287 0.0069424149 
       154.2    499.16448    740.24445    792.43489 0.0069423108 
       154.3    504.72931    740.24445    792.86744 0.0069415986 
       154.4    499.57048    740.24445    793.46151 0.0069423005 
       154.5    495.38746    740.24445    793.96667 0.0069422241 
       154.6    501.90885    740.24445    794.47302 0.0069421581 
       154.7    503.07782    740.24445    794.99971 0.0069422699 
       154.8    495.61537    740.24445    795.54718  0.006942563 
       154.9    496.67184    740.24445    796.18143 0.0069436123 
         155    499.17927    740.24445    796.73579 0.0069439641 
       155.1    506.48442    740.24445    797.20339 0.0069435598 
       155.2    503.04709    740.24445    797.79145 0.0069442045 
       155.3    496.69003    740.24445     798.1914  0.006943212 
       155.4    494.43017    740.24445    798.71481 0.0069432941 
       155.5    492.14849    740.24445    799.19939 0.0069430388 
       155.6    498.37584    740.24445    799.64795  0.006942471 
       155.7    503.34356    740.24445    800.19006 0.0069427157 
       155.8    493.00092    740.24445    800.89014 0.0069443297 
       155.9    492.94903    740.24445    801.31708 0.0069435749 
         156    498.24046    740.24445    801.93151 0.0069444446 
       156.1    499.02734    740.24445    802.60182 0.0069457969 
       156.2    503.83031    740.24445    803.12207 0.0069458495 
       156.3    491.40525    740.24445    803.59753  0.006945515 
       156.4     495.7806    740.24445    804.21193  0.006946381 
       156.5    499.85052    740.24445    804.79453 0.0069469714 
       156.6    503.21588    740.24445    805.29888 0.0069468861 
       156.7    502.93548    740.24445    805.80942 0.0069468542 
       156.8    492.99805    740.24445    806.28445 0.0069465164 
       156.9    492.96202    740.24445    806.79639 0.0069464969 
         157    499.65219    740.24445    807.23962 0.0069458861 
       157.1     496.6266    740.24445    807.71127 0.0069455205 
       157.2    501.95551    740.24445    808.21076 0.0069453946 
       157.3    494.36695    740.24445    808.89605 0.0069468646 
       157.4    500.35761    740.24445    809.36199   0.00694645 
       157.5    497.38586    740.24445    809.85398 0.0069462595 
       157.6    501.67925    740.24445    810.32863 0.0069459205 
       157.7    505.41136    740.24445    810.89922 0.0069464039 
       157.8    497.33284    740.24445    811.33418 0.0069457255 
       157.9    500.06694    740.24445    811.95338 0.0069466242 
         158    504.42944    740.24445    812.43329 0.0069463308 
       158.1    502.03926    740.24445    813.02724 0.0069470123 
       158.2     495.1681    740.24445    813.50106  0.006946667 
       158.3    500.54913    740.24445    814.05685 0.0069470217 
       158.4    505.34496    740.24445    814.62967 0.0069475213 
       158.5    497.79459    740.24445    815.10806 0.0069472154 
       158.6    502.84011    740.24445    815.58937 0.0069469347 
       158.7     495.6236    740.24445    816.17447 0.0069475378 
       158.8      500.201    740.24445    816.72408 0.0069478383 
       158.9    502.04427    740.24445    817.16231 0.0069471915 
         159    499.91294    740.24445      817.619 0.0069467023 
       159.1    499.17832    740.24445    818.17102 0.0069470232 
       159.2     500.4804    740.24445    818.64636 0.0069466931 
       159.3    497.27491    740.24445    819.13909 0.0069465108 
       159.4    500.51533    740.24445    819.77841 0.0069475711 
       159.5    499.66243    740.24445    820.23431 0.0069470766 
       159.6    497.47459    740.24445    820.79841 0.0069474985 
       159.7    498.64396    740.24445    821.38281 0.0069480915 
       159.8    495.52306    740.24445    822.05506 0.0069494266 
       159.9     503.4102    740.24445    822.50386 0.0069488722 
         160    500.10846    740.24445    823.05261 0.0069491623 
       160.1    492.05557    740.24445    823.57274 0.0069492106 
       160.2    499.46437    740.24445      823.986 0.0069483576 
       160.3    498.24595    740.24445    824.86458 0.0069514271 
       160.4    496.01471    740.24445    825.32924 0.0069510067 
       160.5    501.92105    740.24445    825.82686 0.0069508643 
       160.6     500.1072    740.24445    826.36148 0.0069510332 
       160.7    489.50078    740.24445    826.89204 0.0069511678 
       160.8    496.29189    740.24445        827.4 0.0069511125 
       160.9    499.28093    740.24445    827.84926 0.0069505642 
         161    504.95399    740.24445    828.35193 0.0069504649 
       161.1     498.1846    740.24445    828.95394 0.0069511987 
       161.2    494.04776    740.24445    829.47477 0.0069512512 
       161.3    497.42116    740.24445    829.97091 0.0069510969 
       161.4    499.20512    740.24445    830.39598 0.0069503479 
       161.5     497.9799    740.24445    830.88795 0.0069501595 
       161.6    497.15724    740.24445    831.30099 0.0069493115 
       161.7    498.94946    740.24445    831.82407 0.0069493839 
       161.8    497.86254    740.24445      832.263 0.0069487536 
       161.9    501.94444    740.24445     832.7456 0.0069484884 
         162    499.34722    740.24445    833.24027 0.0069483242 
       162.1     499.9488    740.24445    833.71251 0.0069479733 
       162.2    498.36052    740.24445    834.28491  0.006948457 
       162.3    498.14354    740.24445    834.86774  0.006949027 
       162.4    498.94816    740.24445    835.33638 0.0069486464 
       162.5    495.16157    740.24445    835.83418 0.0069485087 
       162.6    498.06348    740.24445    836.24094 0.0069476146 
       162.7    497.41552    740.24445     836.8504 0.0069484048 
       162.8    505.38022    740.24445    837.39523 0.0069486578 
       162.9    505.43466    740.24445    838.02806 0.0069496401 
         163      505.528    740.24445    838.49926 0.0069492817 
       163.1    502.15221    740.24445    839.00486 0.0069492087 
       163.2    502.84173    740.24445    839.43909  0.006948545 
       163.3    504.37407    740.24445    840.00661 0.0069489848 
       163.4    500.91077    740.24445    840.48396 0.0069486784 
       163.5    501.30015    740.24445    841.03046  0.006948944 
       163.6     500.7836    740.24445    841.59771 0.0069493804 
       163.7     496.9707    740.24445    842.12883 0.0069495182 
       163.8    497.01215    740.24445     842.5227 0.0069485238 
       163.9    501.95789    740.24445    842.99989 0.0069482175 
         164    506.62347    740.24445    843.42443 0.0069474778 
       164.1    491.37252    740.24445    843.79948 0.0069463316 
       164.2    492.21456    740.24445     844.2697 0.0069459698 
       164.3    491.70411    740.24445    844.70567 0.0069453268 
       164.4    495.95362    740.24445    845.16792 0.0069449006 
       164.5    502.54363    740.24445    845.78393 0.0069457375 
       164.6    498.82487    740.24445    846.16235 0.0069446235 
       164.7    495.93156    740.24445    846.66798 0.0069445542 
       164.8    496.45971    740.24445      847.034 0.0069433407 
       164.9    497.08344    740.24445    847.50404 0.0069429808 
         165    492.84914    740.24445    848.02569 0.0069430438 
       165.1    499.33456    740.24445    848.66557 0.0069440741 
       165.2    497.12677    740.24445    849.12784 0.0069436509 
       165.3    493.27183    740.24445    849.70506 0.0069441676 
       165.4      503.169    740.24445    850.20234 0.0069440307 
       165.5    498.14539    740.24445    850.67553 0.0069436973 
       165.6    495.96799    740.24445    851.10177 0.0069429814 
       165.7    504.58589    740.24445    851.73104 0.0069439216 
       165.8    495.73024    740.24445    852.20659 0.0069436081 
       165.9    495.89416    740.24445    852.65064 0.0069430385 
         166    497.76869    740.24445    853.14389 0.0069428701 
       166.1     496.8723    740.24445    853.69099 0.0069431397 
       166.2    504.68206    740.24445    854.24325  0.006943451 
       166.3    494.46879    740.24445    854.79757 0.0069437787 
       166.4    499.96532    740.24445     855.4806 0.0069451508 
       166.5    496.20404    740.24445    856.17535 0.0069466164 
       166.6    502.64888    740.24445     856.7427 0.0069470473 
       166.7    496.17734    740.24445     857.1454 0.0069461433 
       166.8    495.97221    740.24445    857.73632 0.0069467648 
       166.9    505.72362    740.24445    858.24363 0.0069467087 
         167    499.71922    740.24445     858.7963 0.0069470198 
       167.1    502.07554    740.24445     859.2892 0.0069468471 
       167.2    493.63305    740.24445     859.9259 0.0069478366 
       167.3     495.7042    740.24445     860.3863 0.0069474013 
       167.4    503.39704    740.24445    861.02536 0.0069484083 
       167.5    500.64153    740.24445    861.51382 0.0069481995 
       167.6    497.52328    740.24445    862.09499 0.0069487381 
       167.7    500.73274    740.24445    862.58801 0.0069485661 
       167.8    497.36077    740.24445     863.0383 0.0069480503 
       167.9    504.10141    740.24445    863.53544  0.006947912 
         168    501.73687    740.24445    864.08842 0.0069482229 
       168.1    500.15397    740.24445    864.76206 0.0069495031 
       168.2    491.65466    740.24445    865.32655 0.0069499051 
       168.3    494.09956    740.24445    865.92315 0.0069505644 
       168.4    498.37211    740.24445    866.41276 0.0069503647 
       168.5    502.13459    740.24445    866.95642 0.0069505985 
       168.6    492.59638    740.24445     867.3886 0.0069499388 
       168.7    496.23804    740.24445    867.83114 0.0069493628 
       168.8    495.48214    740.24445    868.38853 0.0069497067 
       168.9    505.82519    740.24445    868.82465 0.0069490802 
         169    496.24478    740.24445    869.24274 0.0069483103 
       169.1    497.65528    740.24445    869.81201 0.0069487492 
       169.2    496.53765    740.24445    870.24716 0.0069481166 
       169.3    500.47336    740.24445    870.70082 0.0069476325 
       169.4    499.69003    740.24445    871.16597 0.0069472405 
       169.5    502.60812    740.24445    871.60338  0.006946628 
       169.6    505.06833    740.24445    872.21215 0.0069473812 
       169.7    495.38222    740.24445    872.64236 0.0069467119 
       169.8    499.17183    740.24445    873.24888 0.0069474462 
       169.9    498.95855    740.24445    873.74833 0.0069473283 
         170    501.86861    740.24445     874.1835 0.0069466996 
       170.1    492.61317    740.24445    874.59981  0.006945922 
       170.2    495.90425    740.24445    875.09705 0.0069457876 
       170.3    498.34489    740.24445    875.61323 0.0069458037 
       170.4    494.06812    740.24445    876.14709 0.0069459599 
       170.5    489.20313    740.24445    876.61384 0.0069455841 
       170.6    496.46395    740.24445    877.18374 0.0069460257 
       170.7    504.73076    740.24445    877.69326 0.0069459888 
       170.8    502.00472    740.24445     878.2119 0.0069460242 
       170.9    498.12817    740.24445    878.91101  0.006947486 
         171    500.17586    740.24445    879.35215 0.0069469082 
       171.1     497.5001    740.24445    879.96341 0.0069476742 
       171.2     500.2613    740.24445    880.58686 0.0069485355 
       171.3    493.23736    740.24445    881.02883 0.0069479646 
       171.4    496.71786    740.24445    881.63075 0.0069486551 
       171.5    497.72156    740.24445    882.13846 0.0069486025 
       171.6    502.40623    740.24445     882.7697 0.0069495226 
       171.7    492.68496    740.24445    883.22072 0.0069490237 
       171.8    492.73716    740.24445    883.68742 0.0069486486 
       171.9    504.00882    740.24445    884.27316 0.0069492095 
         172    502.98414    740.24445    884.82855 0.0069495313 
       172.1    497.68411    740.24445    885.34633 0.0069495576 
       172.2    505.39061    740.24445    885.95681 0.0069503111 
       172.3    500.18055    740.24445    886.40944  0.006949826 
       172.4    502.42918    740.24445    886.92868 0.0069498636 
       172.5    500.73805    740.24445     887.4613 0.0069500058 
       172.6    501.85691    740.24445    888.09109 0.0069509084 
       172.7    500.75703    740.24445     888.5345  0.006950352 
       172.8    498.39368    740.24445    889.05278 0.0069503816 
       172.9    497.39783    740.24445    889.66078 0.0069511121 
         173    504.87935    740.24445    890.18862 0.0069512159 
       173.1    498.97928    740.24445      890.648 0.0069507852 
       173.2    498.66787    740.24445    891.20369 0.0069511063 
       173.3    506.70746    740.24445    891.69615  0.006950934 
       173.4    490.82292    740.24445    892.22849 0.0069510727 
       173.5    498.75558    740.24445    892.87558 0.0069521047 
       173.6    494.74527    740.24445    893.34184 0.0069517284 
       173.7    496.96443    740.24445    893.81246 0.0069513864 
       173.8     505.8057    740.24445    894.36804 0.0069517051 
       173.9    499.49515    740.24445    894.92871  0.006952063 
         174    498.50218    740.24445    895.53191 0.0069527507 
       174.1     498.8861    740.24445    896.01051 0.0069524708 
       174.2    498.25302    740.24445    896.46147 0.0069519768 
       174.3    496.08472    740.24445    896.99442 0.0069521189 
       174.4    503.36852    740.24445    897.45537 0.0069517032 
       174.5    505.27444    740.24445    898.02623 0.0069521388 
       174.6    505.29328    740.24445    898.64357 0.0069529334 
       174.7    499.01856    740.24445    899.19814 0.0069532418 
       174.8    496.29389    740.24445    899.71323 0.0069532448 
       174.9    496.36513    740.24445    900.31933 0.0069539506 
         175    499.52664    740.24445    900.79907 0.0069536803 
       175.1    502.71053    740.24445     901.4591 0.0069548012 
       175.2    498.17688    740.24445    901.97741 0.0069548281 
       175.3    493.70798    740.24445     902.4951 0.0069548501 
       175.4    491.69398    740.24445    903.09799 0.0069555283 
       175.5    498.32476    740.24445    903.67677 0.0069560202 
       175.6    498.78537    740.24445    904.08499 0.0069551994 
       175.7     491.1231    740.24445    904.57703  0.006955024 
       175.8    496.61108    740.24445    905.07831 0.0069549198 
       175.9    498.55584    740.24445    905.75595 0.0069561701 
         176    498.88941    740.24445    906.35162 0.0069567899 
       176.1    496.47453    740.24445     906.9907  0.006957742 
       176.2    495.53683    740.24445    907.50888  0.006957766 
       176.3    496.39768    740.24445    908.29149 0.0069598162 
       176.4    497.17085    740.24445    908.86444 0.0069602586 
       176.5    501.07308    740.24445    909.37612 0.0069602314 
       176.6    496.63828    740.24445    909.88409 0.0069601759 
       176.7    496.68557    740.24445     910.3464 0.0069597713 
       176.8    494.90418    740.24445    910.88251 0.0069599311 
       176.9    495.27217    740.24445    911.34219 0.0069595071 
         177    502.46598    740.24445    911.83773 0.0069593573 
    