
units 		metal
dimension	3
boundary	p	p	p
atom_style	atomic

###READ ATOMS
read_data ${LOC2}/TC-EQ-STRUCTURE-5-10
read_data ../output/output-2//TC-EQ-STRUCTURE-5-10
  orthogonal box = (-1.10372 -2.20743 -1.10372) to (26.1037 52.2074 26.1037)
  2 by 2 by 2 MPI processor grid
  reading atoms ...
  2000 atoms
  reading velocities ...
  2000 velocities

###load potential
pair_style sw
pair_coeff * * pot/Si.sw Si
Reading potential file pot/Si.sw with DATE: 2007-06-11
mass * 28.0855


####fix ID group-ID thermal/conductivity N edim Nbin keyword value ...
reset_timestep 0

fix 1 all thermal/conductivity ${swap_every} y ${TC_num_layers} swap ${num_swap}
fix 1 all thermal/conductivity 400 y ${TC_num_layers} swap ${num_swap}
fix 1 all thermal/conductivity 400 y 36 swap ${num_swap}
fix 1 all thermal/conductivity 400 y 36 swap 2

fix       2 all nve

#TEMPERATURE PROFILE
compute   KE all ke/atom
variable  temp1 atom c_KE/(1.5*0.00008617)
compute   layers all chunk/atom bin/1d y lower 2.0 #units reduced
fix 3 all ave/chunk 1 ${N_TC} ${N_TC} layers v_temp1 file ${LOC2}/TC-TEMP-PROFILE-5-10
fix 3 all ave/chunk 1 500000 ${N_TC} layers v_temp1 file ${LOC2}/TC-TEMP-PROFILE-5-10
fix 3 all ave/chunk 1 500000 500000 layers v_temp1 file ${LOC2}/TC-TEMP-PROFILE-5-10
fix 3 all ave/chunk 1 500000 500000 layers v_temp1 file ../output/output-2//TC-TEMP-PROFILE-5-10

thermo ${thermo_save}
thermo 400

variable A equal lx*lz
variable flux equal f_1/((time-0.000000000001)*v_A) #ADD -0.000001 to avoid division by zero
thermo_style custom time temp v_A f_1 v_flux

run ${N_TC}
run 500000
Neighbor list info ...
  1 neighbor list requests
  update every 1 steps, delay 10 steps, check yes
  max neighbors/atom: 2000, page size: 100000
  master list distance cutoff = 5.77118
  ghost atom cutoff = 5.77118
  binsize = 2.88559 -> bins = 10 19 10
Memory usage per processor = 2.64524 Mbytes
Time Temp A 1 flux 
           0    496.63136    740.24445            0           -0 
         0.4    501.77817    740.24445   0.59625483 0.0020137092 
         0.8    492.67851    740.24445    1.0374616 0.0017518902 
         1.2    519.96724    740.24445    1.4980097 0.0016863908 
         1.6     491.4582    740.24445    1.9756362 0.0016680606 
           2    492.76732    740.24445    2.6775052 0.0018085277 
         2.4    503.11149    740.24445    3.1622714 0.0017799702 
         2.8    505.51983    740.24445    3.7688479 0.0018183414 
         3.2      506.885    740.24445    4.1551229 0.0017541177 
         3.6     496.8453    740.24445    4.8277387 0.0018116158 
           4    491.55502    740.24445    5.2443768 0.0017711638 
         4.4    512.08162    740.24445    5.6771178 0.0017430108 
         4.8    496.30278    740.24445    6.1120131 0.0017201562 
         5.2    496.21405    740.24445     6.588937 0.0017117363 
         5.6    507.48822    740.24445    7.0531704 0.0017014578 
           6    500.86462    740.24445    7.4544342 0.0016783722 
         6.4    492.13411    740.24445    7.8300208 0.0016527523 
         6.8    492.29739    740.24445    8.2588549 0.0016407249 
         7.2    525.07874    740.24445    8.5847506 0.0016107199 
         7.6    511.70634    740.24445    8.9500074 0.0015908698 
           8    502.56647    740.24445    9.3686068 0.0015820123 
         8.4     496.2703    740.24445    9.8448056 0.0015832617 
         8.8    503.88277    740.24445    10.341351 0.0015875209 
         9.2    497.20433    740.24445    10.696935 0.0015707112 
         9.6    499.70093    740.24445    11.083835 0.0015597092 
          10    511.32539    740.24445    11.498968 0.0015534014 
        10.4    502.02512    740.24445    11.941643 0.0015511564 
        10.8    489.97761    740.24445    12.342176 0.0015438064 
        11.2    486.42281    740.24445      13.0185 0.0015702462 
        11.6    498.62186    740.24445    13.459081 0.0015674087 
          12    498.12224    740.24445    13.825547 0.0015564169 
        12.4    497.94564    740.24445    14.292586 0.0015570909 
        12.8    494.36843    740.24445    14.664956 0.0015477316 
        13.2    506.84372    740.24445    15.132157 0.0015486445 
        13.6    504.26127    740.24445    15.476416 0.0015372919 
          14    501.63539    740.24445    15.878923 0.0015322084 
        14.4    498.46314    740.24445    16.318272 0.0015308636 
        14.8    512.84358    740.24445    16.765901 0.0015303474 
        15.2    511.68908    740.24445    17.327792 0.0015400133 
        15.6    501.10297    740.24445    17.722724 0.0015347255 
          16    499.38704    740.24445    18.252906 0.0015411215 
        16.4    503.61029    740.24445     18.68662 0.0015392591 
        16.8    490.76351    740.24445    19.164767 0.0015410584 
        17.2    504.01813    740.24445    19.656731 0.0015438592 
        17.6    502.87016    740.24445    20.144642 0.0015462215 
          18    505.35403    740.24445    20.581003 0.0015446101 
        18.4    499.17718    740.24445    21.051614 0.0015455833 
        18.8    497.24974    740.24445    21.336782 0.0015331898 
        19.2    494.97496    740.24445    21.613885 0.0015207452 
        19.6    491.22029    740.24445    22.195694   0.00152981 
          20     497.5371    740.24445    22.582073 0.0015253119 
        20.4    495.43759    740.24445    22.955542 0.0015201352 
        20.8    487.95249    740.24445    23.434277 0.0015219945 
        21.2    512.79627    740.24445    23.958485 0.0015266811 
        21.6    496.13742    740.24445    24.500193 0.0015322887 
          22    492.18866    740.24445    24.844525 0.0015255725 
        22.4    493.93864    740.24445    25.322254 0.0015271412 
        22.8    487.03197    740.24445    25.640313 0.0015191943 
        23.2     500.6864    740.24445    26.005602 0.0015142716 
        23.6    497.43904    740.24445    26.409961 0.0015117522 
          24    501.20174    740.24445    26.897607 0.0015140048 
        24.4    502.02949    740.24445    27.335124 0.0015134081 
        24.8    508.32522    740.24445    27.790224 0.0015137885 
        25.2    498.94648    740.24445    28.267843  0.001515364 
        25.6     500.7381    740.24445     28.71527 0.0015152971 
          26    497.75602    740.24445    29.127681 0.0015134128 
        26.4    503.63763    740.24445     29.66548 0.0015180018 
        26.8    503.45869    740.24445    30.203533 0.0015224667 
        27.2    493.71694    740.24445    30.684679 0.0015239739 
        27.6    501.81316    740.24445    31.006838 0.0015176556 
          28     502.7612    740.24445    31.433649  0.001516567 
        28.4    502.67365    740.24445     31.91638  0.001518169 
        28.8    504.20396    740.24445    32.398884 0.0015197159 
        29.2    504.36897    740.24445    32.890893 0.0015216601 
        29.6    505.54247    740.24445    33.273094 0.0015185403 
          30    482.94501    740.24445    33.616205 0.0015137434 
        30.4    498.56735    740.24445     33.99586 0.0015106967 
        30.8    483.77053    740.24445    34.389455 0.0015083406 
        31.2    485.70717    740.24445    34.734589 0.0015039466 
        31.6    499.12151    740.24445    35.219106 0.0015056224 
          32    504.26034    740.24445    35.849614 0.0015134196 
        32.4    493.26256    740.24445    36.310628 0.0015139572 
        32.8    505.37174    740.24445    36.808818 0.0015160128 
        33.2    503.35387    740.24445    37.376712 0.0015208551 
        33.6    496.31996    740.24445    37.761765  0.001518231 
          34    490.74128    740.24445    38.196559 0.0015176449 
        34.4    503.17849    740.24445    38.586576  0.001515314 
        34.8    500.44869    740.24445    39.084561 0.0015172279 
        35.2    503.31313    740.24445    39.503852 0.0015160783 
        35.6     493.0521    740.24445    39.837126 0.0015116903 
          36    498.01567    740.24445    40.277608 0.0015114229 
        36.4     498.3592    740.24445    40.815898 0.0015147913 
        36.8    498.26255    740.24445     41.25831 0.0015145669 
        37.2    503.33478    740.24445    41.688613 0.0015139075 
        37.6    497.71447    740.24445    42.011193 0.0015093919 
          38    489.76738    740.24445    42.547465 0.0015125681 
        38.4    505.17925    740.24445    43.013677 0.0015132134 
        38.8    507.77917    740.24445    43.345812 0.0015091773 
        39.2    495.46446    740.24445    43.782214 0.0015088167 
        39.6     489.0898    740.24445    44.199839 0.0015078229 
          40    512.45789    740.24445    44.601177 0.0015062989 
        40.4    500.79198    740.24445    45.031176 0.0015057635 
        40.8    488.91507    740.24445     45.46004  0.001505201 
        41.2    483.70027    740.24445    46.006878 0.0015085176 
        41.6    491.14863    740.24445    46.319953 0.0015041793 
          42    495.80953    740.24445    46.729893 0.0015030393 
        42.4    503.92435    740.24445    47.085638 0.0015001941 
        42.8    498.75106    740.24445    47.590632 0.0015021128 
        43.2    494.47194    740.24445    48.091279   0.00150386 
        43.6    500.66256    740.24445    48.439595 0.0015008554 
          44    504.62569    740.24445    48.772093 0.0014974197 
        44.4    488.26544    740.24445    49.237194 0.0014980805 
        44.8    488.78417    740.24445    49.604243 0.0014957729 
        45.2    502.05025    740.24445    50.038692 0.0014955204 
        45.6    490.47142    740.24445    50.420271 0.0014937062 
          46    504.46762    740.24445    50.802319 0.0014919372 
        46.4    508.71535    740.24445     51.18127 0.0014901086 
        46.8    490.34755    740.24445    51.700232 0.0014923527 
        47.2    500.92914    740.24445    52.249688 0.0014954316 
        47.6    494.26613    740.24445    52.715157 0.0014960751 
          48    496.42202    740.24445    53.065552 0.0014934693 
        48.4    508.70083    740.24445    53.661347 0.0014977559 
        48.8    495.92396    740.24445    54.027734 0.0014956217 
        49.2    494.48154    740.24445    54.629857  0.001499995 
        49.6    497.71454    740.24445    55.027137 0.0014987185 
          50    496.73934    740.24445    55.529695  0.001500307 
        50.4    493.67495    740.24445    55.903598 0.0014984217 
        50.8    514.04004    740.24445    56.347109 0.0014984173 
        51.2    513.11697    740.24445    56.683112 0.0014955763 
        51.6    499.70582    740.24445    57.049881 0.0014935848 
          52    500.72263    740.24445    57.512781 0.0014941213 
        52.4    492.52893    740.24445    58.043768  0.001496405 
        52.8    505.41122    740.24445    58.484083 0.0014963342 
        53.2    500.35474    740.24445     58.94286 0.0014967333 
        53.6    499.02199    740.24445    59.450969 0.0014983697 
          54    508.03827    740.24445    59.824017 0.0014966031 
        54.4    499.28795    740.24445    60.225901 0.0014955786 
        54.8     497.1825    740.24445    60.586157 0.0014935429 
        55.2    493.92398    740.24445     61.05575 0.0014942124 
        55.6    494.14958    740.24445    61.512802 0.0014945676 
          56    498.27747    740.24445    61.994221 0.0014955055 
        56.4    498.81051    740.24445    62.511213 0.0014972822 
        56.8     501.8035    740.24445    63.069968 0.0015000271 
        57.2    499.53453    740.24445    63.532976 0.0015004724 
        57.6    498.49994    740.24445    64.159726 0.0015047517 
          58    492.52945    740.24445    64.485074  0.001501952 
        58.4    500.91648    740.24445    64.861881 0.0015003809 
        58.8    492.10906    740.24445    65.415551 0.0015028946 
        59.2    494.65013    740.24445    65.699986 0.0014992305 
        59.6    500.97863    740.24445    66.112533 0.0014985194 
          60    498.39091    740.24445    66.512223 0.0014975283 
        60.4    493.96384    740.24445     66.87364 0.0014956944 
        60.8    498.09647    740.24445    67.232708 0.0014938324 
        61.2     501.3235    740.24445    67.654631 0.0014933821 
        61.6    498.06521    740.24445    68.156269 0.0014946859 
          62     491.2706    740.24445    68.519532 0.0014929578 
        62.4    501.42388    740.24445    68.895391 0.0014915246 
        62.8    505.32561    740.24445    69.372437 0.0014922863 
        63.2    503.54624    740.24445    69.804728 0.0014920817 
        63.6    500.94266    740.24445    70.315063 0.0014935374 
          64    506.13434    740.24445    70.809431 0.0014946378 
        64.4    498.25579    740.24445    71.164308 0.0014927985 
        64.8    491.32903    740.24445    71.624272 0.0014931727 
        65.2    509.32455    740.24445    72.025996 0.0014923357 
        65.6    498.74515    740.24445    72.476832 0.0014925202 
          66     517.5791    740.24445     73.06271 0.0014954665 
        66.4    503.23392    740.24445      73.4453 0.0014942414 
        66.8    507.27359    740.24445    73.881992 0.0014941251 
        67.2    506.10678    740.24445    74.359393 0.0014948286 
        67.6    501.77231    740.24445    74.827963 0.0014953473 
          68     491.0539    740.24445    75.416288 0.0014982389 
        68.4     493.7107    740.24445    75.906148 0.0014991521 
        68.8    506.10869    740.24445    76.351829 0.0014991871 
        69.2    489.64794    740.24445    76.740105 0.0014981011 
        69.6    493.29867    740.24445    77.344819 0.0015012286 
          70    504.26612    740.24445    77.834843 0.0015021069 
        70.4     505.9722    740.24445    78.267061 0.0015018661 
        70.8    502.48905    740.24445     78.78627 0.0015032878 
        71.2    497.18285    740.24445     79.37648 0.0015060406 
        71.6    503.84889    740.24445     79.79338 0.0015054928 
          72    511.84007    740.24445     80.07274 0.0015023704 
        72.4    500.62675    740.24445    80.658839  0.001505006 
        72.8    501.58236    740.24445    81.052645 0.0015040444 
        73.2    503.30352    740.24445    81.593945 0.0015058152 
        73.6    498.24297    740.24445    82.076796  0.001506494 
          74    498.27706    740.24445    82.498839 0.0015060554 
        74.4    503.55155    740.24445    82.928131 0.0015057531 
        74.8    505.73747    740.24445    83.279504 0.0015040469 
        75.2    495.69032    740.24445    83.872093  0.001506692 
        75.6     510.6108    740.24445    84.574177 0.0015112657 
          76    489.78124    740.24445    84.997932 0.0015108439 
        76.4    493.75661    740.24445    85.390231 0.0015098704 
        76.8    498.03886    740.24445    85.793246 0.0015090955 
        77.2    493.03092    740.24445    86.281854 0.0015098264 
        77.6    493.85703    740.24445    86.785174 0.0015108059 
          78    508.46705    740.24445    87.162645 0.0015095957 
        78.4    505.53769    740.24445    87.592159 0.0015092946 
        78.8    503.68381    740.24445     88.01035 0.0015088024 
        79.2    492.91913    740.24445    88.460852 0.0015088664 
        79.6    495.48956    740.24445    88.931544 0.0015092723 
          80    497.74949    740.24445    89.306846 0.0015080634 
        80.4    511.33982    740.24445    89.708487 0.0015073091 
        80.8    502.84217    740.24445    90.123381 0.0015067838 
        81.2    503.86195    740.24445     90.47043  0.001505135 
        81.6    499.54913    740.24445    90.889246 0.0015046905 
          82    504.94817    740.24445     91.27034 0.0015036289 
        82.4    502.01095    740.24445    91.619606 0.0015020557 
        82.8     505.8407    740.24445    92.005678 0.0015010983 
        83.2    495.36279    740.24445    92.559048 0.0015028665 
        83.6    499.76238    740.24445    93.009812 0.0015029597 
          84     506.7915    740.24445    93.448296 0.0015028545 
        84.4    504.13284    740.24445    93.898344 0.0015029354 
        84.8    491.42588    740.24445    94.435855 0.0015044089 
        85.2    498.94718    740.24445    94.908022 0.0015048325 
        85.6    490.67425    740.24445    95.308896  0.001504127 
          86    503.43096    740.24445       95.748 0.0015040286 
        86.4    507.51119    740.24445    96.199203 0.0015041203 
        86.8    501.61472    740.24445    96.688464 0.0015048034 
        87.2    494.23326    740.24445    97.076998 0.0015039199 
        87.6     499.4971    740.24445     97.43816 0.0015026222 
          88    504.10554    740.24445    97.984322 0.0015041764 
        88.4    506.62362    740.24445    98.428477 0.0015041576 
        88.8    504.99669    740.24445    98.841806   0.00150367 
        89.2    491.52759    740.24445    99.401925 0.0015054099 
        89.6    493.01301    740.24445    99.844895 0.0015053681 
          90    507.10827    740.24445     100.3131 0.0015057053 
        90.4    502.27336    740.24445    100.67007 0.0015043773 
        90.8    498.75124    740.24445    101.04313 0.0015033004 
        91.2    496.85849    740.24445    101.42007 0.0015022904 
        91.6    493.84908    740.24445    101.89435 0.0015027249 
          92    495.98212    740.24445    102.42974 0.0015040528 
        92.4    504.87696    740.24445    102.86525  0.001503909 
        92.8    497.68956    740.24445    103.38584 0.0015050049 
        93.2    488.36212    740.24445    103.80101 0.0015045635 
        93.6    502.63991    740.24445    104.10944 0.0015025851 
          94    504.93549    740.24445    104.57418 0.0015028701 
        94.4    492.53006    740.24445    104.81929 0.0015000097 
        94.8    497.92859    740.24445    105.21819 0.0014993648 
        95.2    490.49506    740.24445    105.63784 0.0014990199 
        95.6     492.2484    740.24445    106.02198  0.001498176 
          96    506.72164    740.24445    106.59242 0.0014999609 
        96.4     515.5546    740.24445     107.1054 0.0015009256 
        96.8    497.89079    740.24445    107.44252 0.0014994282 
        97.2    505.09834    740.24445    107.98172 0.0015007517 
        97.6     503.1297    740.24445    108.37458 0.0015000387 
          98    511.37064    740.24445    108.78588 0.0014995857 
        98.4     504.6233    740.24445    109.22179 0.0014994744 
        98.8    506.21517    740.24445    109.71308  0.001500121 
        99.2    494.51975    740.24445    110.04385 0.0014985766 
        99.6    503.83592    740.24445    110.44267 0.0014979676 
         100    492.82115    740.24445    110.86332 0.0014976583 
       100.4    498.67916    740.24445    111.26173 0.0014970521 
       100.8    501.14742    740.24445    111.66796 0.0014965557 
       101.2     491.8449    740.24445    112.02009  0.001495341 
       101.6    500.46814    740.24445    112.54489 0.0014964318 
         102    490.47245    740.24445    112.89463 0.0014951954 
       102.4    497.59821    740.24445    113.32483 0.0014950301 
       102.8    492.84987    740.24445    113.79959 0.0014954518 
       103.2    491.21519    740.24445    114.23169 0.0014953117 
       103.6    506.05317    740.24445    114.76425 0.0014964828 
         104    495.64631    740.24445    115.53254 0.0015007067 
       104.4    493.77344    740.24445    116.16257 0.0015031092 
       104.8    520.11126    740.24445     116.5526 0.0015023998 
       105.2    504.44501    740.24445    117.07876 0.0015034438 
       105.6    497.84467    740.24445    117.33873 0.0015010747 
         106    498.68941    740.24445    117.75914 0.0015007682 
       106.4    499.15512    740.24445    118.15073 0.0015000979 
       106.8    507.84408    740.24445    118.60796 0.0015002631 
       107.2    482.71306    740.24445    119.02814 0.0014999601 
       107.6    507.75084    740.24445    119.48124 0.0015000727 
         108    500.36978    740.24445    119.87984 0.0014995026 
       108.4    508.45567    740.24445    120.18383 0.0014977578 
       108.8     503.8689    740.24445    120.70613 0.0014987364 
       109.2    508.33768    740.24445    121.09633 0.0014980737 
       109.6    493.24912    740.24445    121.61461 0.0014989945 
         110    495.65359    740.24445    122.09542 0.0014994485 
       110.4    511.55123    740.24445    122.51739 0.0014991791 
       110.8    501.16418    740.24445    122.94957 0.0014990362 
       111.2    512.36559    740.24445    123.35938 0.0014986224 
       111.6    495.05645    740.24445    123.74282 0.0014978926 
         112    510.94237    740.24445    124.08296 0.0014966455 
       112.4    497.89246    740.24445     124.4789 0.0014960781 
       112.8    507.13888    740.24445    124.87428  0.001495508 
       113.2    496.26133    740.24445    125.34567  0.001495849 
       113.6    501.52524    740.24445    125.79139 0.0014958824 
         114    499.01627    740.24445    126.33796 0.0014971105 
       114.4    502.38155    740.24445    126.84257 0.0014978346 
       114.8    502.82921    740.24445    127.41563 0.0014993591 
       115.2    512.02516    740.24445    127.87766  0.001499571 
       115.6    510.33861    740.24445    128.35848 0.0015000011 
         116    494.44964    740.24445    128.69963 0.0014988016 
       116.4    505.59597    740.24445    129.13334 0.0014986846 
       116.8    499.50414    740.24445    129.52551 0.0014980879 
       117.2    499.37415    740.24445    129.96851 0.0014980812 
       117.6    498.27269    740.24445    130.35285 0.0014974008 
         118    493.27541    740.24445    130.78119 0.0014972286 
       118.4    496.92347    740.24445    131.45852 0.0014998985 
       118.8    507.73222    740.24445    131.94614 0.0015003932 
       119.2    503.14357    740.24445    132.29036 0.0014992594 
       119.6    508.48639    740.24445    132.67655 0.0014986073 
         120    510.32712    740.24445    133.23594 0.0014999093 
       120.4    493.00223    740.24445     133.6469 0.0014995372 
       120.8    503.44537    740.24445    134.00053 0.0014985264 
       121.2    500.67737    740.24445    134.67227 0.0015010681 
       121.6    500.27599    740.24445     135.1742 0.0015017065 
         122    496.12666    740.24445    135.56369 0.0015010957 
       122.4    499.86379    740.24445    136.02091 0.0015012364 
       122.8     503.3403    740.24445    136.72064  0.001504044 
       123.2    514.40872    740.24445    137.26689 0.0015051505 
       123.6    501.44583    740.24445    137.63737 0.0015043286 
         124    490.72497    740.24445    138.13143 0.0015048585 
       124.4    494.65018    740.24445    138.60226 0.0015051326 
       124.8     501.1999    740.24445    139.19444 0.0015067185 
       125.2    506.42814    740.24445     139.7431 0.0015078249 
       125.6    497.30169    740.24445    140.19123 0.0015078427 
         126     502.8484    740.24445    140.72053 0.0015087308 
       126.4    490.60662    740.24445    141.23544 0.0015094595 
       126.8    494.66569    740.24445    141.62634 0.0015088623 
       127.2    497.20908    740.24445    142.00661  0.001508156 
       127.6    496.27167    740.24445    142.45404 0.0015081652 
         128    501.13821    740.24445    143.07792 0.0015100366 
       128.4    509.66001    740.24445    143.60219 0.0015108484 
       128.8    506.29786    740.24445    144.07575 0.0015111232 
       129.2    495.40162    740.24445    144.40959 0.0015099354 
       129.6    496.68194    740.24445    144.86109 0.0015099814 
         130    501.57542    740.24445    145.31592 0.0015100616 
       130.4    492.96996    740.24445    145.71561 0.0015095703 
       130.8    504.09795    740.24445    146.17019 0.0015096487 
       131.2    503.69523    740.24445    146.73042 0.0015108146 
       131.6    511.70333    740.24445    147.02612 0.0015092578 
         132    500.99829    740.24445    147.37307 0.0015082351 
       132.4    493.23674    740.24445     147.9247 0.0015093068 
       132.8    507.66517    740.24445    148.46858 0.0015102934 
       133.2     492.3156    740.24445    148.87976 0.0015099282 
       133.6    504.81034    740.24445    149.35102 0.0015101725 
         134    494.83756    740.24445    149.78257 0.0015100152 
       134.4     499.9182    740.24445    150.20914 0.0015098087 
       134.8    506.37706    740.24445    150.67261 0.0015099733 
       135.2    511.23931    740.24445    151.15042 0.0015102801 
       135.6    495.09347    740.24445    151.64406 0.0015107429 
         136    515.71617    740.24445    152.12503 0.0015110771 
       136.4    503.61258    740.24445      152.539 0.0015107457 
       136.8    491.30273    740.24445    152.84439  0.001509344 
       137.2    498.82343    740.24445    153.37349 0.0015101532 
       137.6     494.0827    740.24445    153.73574 0.0015093197 
         138    493.15758    740.24445     154.2414 0.0015098949 
       138.4    499.24625    740.24445    154.60996 0.0015091285 
       138.8    493.92436    740.24445    155.07989 0.0015093531 
       139.2     504.7929    740.24445    155.64167 0.0015104678 
       139.6    496.24119    740.24445    156.07088 0.0015102933 
         140     494.6178    740.24445    156.48188 0.0015099441 
       140.4    490.46686    740.24445    156.87366 0.0015094118 
       140.8    496.62701    740.24445    157.16971 0.0015079642 
       141.2    494.13315    740.24445    157.59739 0.0015077841 
       141.6    495.26136    740.24445    158.18798 0.0015091592 
         142    497.17505    740.24445    158.49338 0.0015078135 
       142.4    498.16673    740.24445    158.97046 0.0015081039 
       142.8    504.83005    740.24445    159.45556 0.0015084687 
       143.2    502.55003    740.24445     159.8506 0.0015079818 
       143.6    513.03272    740.24445    160.32009 0.0015081979 
         144    511.89427    740.24445     160.6937 0.0015075134 
       144.4     505.3559    740.24445     161.1893  0.001507974 
       144.8     505.5765    740.24445    161.70606 0.0015086294 
       145.2    494.92527    740.24445    162.14978 0.0015086017 
       145.6    494.29182    740.24445    162.58009 0.0015084497 
         146    503.26113    740.24445       163.12 0.0015093126 
       146.4    497.38033    740.24445     163.5804 0.0015094371 
       146.8    498.61195    740.24445    163.90538 0.0015083148 
       147.2    495.97336    740.24445    164.26281 0.0015074963 
       147.6    502.78247    740.24445    164.58146 0.0015063275 
         148    492.55418    740.24445    165.04811 0.0015065158 
       148.4    498.16807    740.24445    165.65669  0.001507995 
       148.8    508.31381    740.24445    166.00947 0.0015071441 
       149.2    507.40703    740.24445    166.46238 0.0015072043 
       149.6    503.51379    740.24445    166.82375 0.0015064375 
         150    515.13053    740.24445    167.20109 0.0015058187 
       150.4    509.43327    740.24445    167.61125  0.001505498 
       150.8    502.67134    740.24445    168.07098  0.001505623 
       151.2    493.47621    740.24445    168.40264 0.0015046031 
       151.6     494.0538    740.24445    168.73331 0.0015035798 
         152     500.2978    740.24445    169.30018  0.001504661 
       152.4    498.00546    740.24445    169.68357 0.0015041102 
       152.8    504.53543    740.24445    170.07741 0.0015036547 
       153.2    502.11159    740.24445    170.50917 0.0015035359 
       153.6    500.66711    740.24445    170.98731 0.0015038257 
         154    494.89884    740.24445      171.357 0.0015031626 
       154.4    502.38397    740.24445    171.95255 0.0015044791 
       154.8    504.74564    740.24445    172.51985 0.0015055423 
       155.2    489.68294    740.24445    172.87908 0.0015047888 
       155.6    491.06601    740.24445    173.28113 0.0015044111 
         156    514.71477    740.24445    173.63033 0.0015035776 
       156.4    508.27434    740.24445     174.1336 0.0015040791 
       156.8    512.63067    740.24445    174.64618 0.0015046582 
       157.2    501.40917    740.24445    175.19323 0.0015055307 
       157.6    496.47135    740.24445    175.78639 0.0015067939 
         158    499.38839    740.24445    176.24235 0.0015068778 
       158.4     515.4425    740.24445    176.59528 0.0015060824 
       158.8    500.06149    740.24445    176.97898 0.0015055529 
       159.2    503.68377    740.24445    177.43469 0.0015056371 
       159.6    505.05601    740.24445    177.84278 0.0015053178 
         160    493.23258    740.24445     178.2799 0.0015052451 
       160.4    502.51593    740.24445    178.63956 0.0015045205 
       160.8    502.92151    740.24445    179.27735 0.0015061361 
       161.2    509.33824    740.24445    179.59607 0.0015050698 
       161.6    507.54038    740.24445    180.06163 0.0015052362 
         162    497.54245    740.24445    180.49232 0.0015051111 
       162.4    500.96517    740.24445    180.82761  0.001504193 
       162.8    497.29578    740.24445    181.34254   0.00150477 
       163.2    488.52661    740.24445    181.78657 0.0015047573 
       163.6     508.2969    740.24445    182.31992 0.0015054823 
         164    501.35123    740.24445     182.7049 0.0015049816 
       164.4    499.67082    740.24445    183.04344 0.0015041017 
       164.8    494.71556    740.24445    183.60141 0.0015050247 
       165.2    492.28964    740.24445    184.13843  0.001505772 
       165.6     499.4133    740.24445    184.64332 0.0015062536 
         166    494.94639    740.24445    185.08533 0.0015062212 
       166.4    499.12168    740.24445     185.5854 0.0015066602 
       166.8    507.32739    740.24445     186.1518 0.0015076344 
       167.2    506.36187    740.24445    186.51662 0.0015069752 
       167.6    494.34232    740.24445    187.04515 0.0015076387 
         168     493.2542    740.24445    187.59511 0.0015084714 
       168.4    493.99357    740.24445    187.92843 0.0015075622 
       168.8    501.65783    740.24445    188.50137  0.001508575 
       169.2    508.12588    740.24445    188.97857 0.0015088187 
       169.6    493.72524    740.24445    189.33339 0.0015080863 
         170    490.15868    740.24445    189.63777 0.0015069566 
       170.4     506.8099    740.24445    189.93622 0.0015057853 
       170.8    489.87249    740.24445    190.43969 0.0015062409 
       171.2    493.19557    740.24445    190.88021 0.0015061977 
       171.6    499.02166    740.24445    191.45873 0.0015072411 
         172    494.25839    740.24445    191.85496 0.0015068479 
       172.4    498.37698    740.24445    192.44097 0.0015079436 
       172.8    493.47807    740.24445    192.95161 0.0015084451 
       173.2    503.79856    740.24445    193.35755 0.0015081276 
       173.6    501.60797    740.24445    193.79015  0.001508019 
         174    494.38176    740.24445    194.07194 0.0015067401 
       174.4    503.60789    740.24445    194.56761 0.0015071237 
       174.8    511.78768    740.24445    195.04329 0.0015073511 
       175.2    496.71726    740.24445    195.50997 0.0015075081 
       175.6    493.82651    740.24445    195.99227 0.0015077845 
         176    499.39125    740.24445    196.38512 0.0015073731 
       176.4    490.35874    740.24445    196.72895 0.0015065881 
       176.8    503.55517    740.24445     197.0796 0.0015058588 
       177.2    505.65425    740.24445    197.49154 0.0015056001 
       177.6    496.78272    740.24445    197.91307 0.0015054154 
         178    493.75461    740.24445     198.3506  0.001505353 
       178.4    505.15106    740.24445    198.81633 0.0015055044 
       178.8    502.57171    740.24445    199.25595 0.0015054579 
       179.2    498.62616    740.24445    199.68604 0.0015053398 
       179.6    501.63974    740.24445    200.10934 0.0015051711 
         180    519.62999    740.24445     200.4791 0.0015046013 
       180.4    493.85056    740.24445    200.83665 0.0015039426 
       180.8    511.41297    740.24445    201.27214 0.0015038692 
       181.2     505.6832    740.24445    201.68073 0.0015035956 
       181.6    496.72808    740.24445    202.00049 0.0015026624 
         182    497.62094    740.24445    202.43109  0.001502556 
       182.4     509.6719    740.24445    202.83531 0.0015022546 
       182.8    502.70121    740.24445    203.27862 0.0015022435 
       183.2    491.52202    740.24445    203.65845 0.0015017644 
       183.6    486.24886    740.24445    204.14202 0.0015020506 
         184    501.71405    740.24445    204.52232 0.0015015774 
       184.4    493.65218    740.24445    204.81729 0.0015004811 
       184.8    487.41581    740.24445    205.30198 0.0015007764 
       185.2    495.16694    740.24445    205.81286 0.0015012616 
       185.6    495.58943    740.24445    206.17841 0.0015006868 
         186    501.36457    740.24445     206.5634 0.0015002557 
       186.4    495.91921    740.24445    206.96995 0.0014999826 
       186.8    503.69111    740.24445    207.53464 0.0015008544 
       187.2    492.22414    740.24445    207.99472 0.0015009675 
       187.6    489.55312    740.24445    208.56618 0.0015018823 
         188    505.47738    740.24445    208.99579 0.0015017738 
       188.4    493.94679    740.24445    209.34549 0.0015010928 
       188.8    507.16639    740.24445    209.88039 0.0015017399 
       189.2    510.54514    740.24445    210.28602 0.0015014612 
       189.6    503.77952    740.24445     210.6258 0.0015007145 
         190    498.51329    740.24445    211.03774  0.001500484 
       190.4     500.3513    740.24445    211.36779 0.0014996735 
       190.8    511.18243    740.24445    211.87914 0.0015001499 
       191.2    501.01095    740.24445     212.3282 0.0015001843 
       191.6     500.8999    740.24445    212.77361 0.0015001929 
         192    487.73454    740.24445    213.13277 0.0014995945 
       192.4    494.43052    740.24445    213.50552  0.001499094 
       192.8    495.01038    740.24445     214.0114 0.0014995285 
       193.2    501.10111    740.24445    214.41936 0.0014992764 
       193.6    492.38859    740.24445    214.74823 0.0014984736 
         194     490.4581    740.24445     215.2952 0.0014991927 
       194.4    508.71849    740.24445     215.7374 0.0014991808 
       194.8    503.30553    740.24445    216.40543 0.0015007351 
       195.2    503.48309    740.24445    216.90152 0.0015010931 
       195.6    498.22329    740.24445    217.56446 0.0015026019 
         196    507.52284    740.24445    218.09334 0.0015031806 
       196.4    507.88755    740.24445    218.49251 0.0015028648 
       196.8    507.55238    740.24445    218.99634 0.0015032686 
       197.2    497.46906    740.24445    219.40548 0.0015030222 
       197.6    498.57367    740.24445    219.82852 0.0015028718 
         198    516.64651    740.24445    220.24217 0.0015026579 
       198.4    494.86871    740.24445    220.60191 0.0015020778 
       198.8      507.167    740.24445    221.04916 0.0015020948 
       199.2    499.20131    740.24445     221.5938 0.0015027721 
       199.6    501.81513    740.24445    222.05824 0.0015029038 
         200    488.66277    740.24445    222.47511 0.0015027138 
       200.4    493.18977    740.24445    223.06824 0.0015037127 
       200.8    495.89361    740.24445    223.59301 0.0015042477 
       201.2    506.90531    740.24445    224.03283 0.0015042102 
       201.6    504.09133    740.24445       224.47 0.0015041551 
         202     489.9296    740.24445     224.7931 0.0015033374 
       202.4      494.521    740.24445    225.35889 0.0015041427 
       202.8     497.1433    740.24445     225.8067 0.0015041589 
       203.2    506.62071    740.24445    226.26223 0.0015042264 
       203.6    505.79697    740.24445    226.69746 0.0015041589 
         204    501.41597    740.24445    227.27793 0.0015050535 
       204.4    496.79059    740.24445    227.79834 0.0015055477 
       204.8    494.84647    740.24445     228.4226 0.0015067248 
       205.2    494.17966    740.24445     228.8242 0.0015064316 
       205.6    497.74862    740.24445     229.3054 0.0015066626 
         206    494.92871    740.24445     229.7824 0.0015068651 
       206.4    496.49716    740.24445    230.17576 0.0015065194 
       206.8    493.40517    740.24445    230.66876  0.001506826 
       207.2    512.56465    740.24445    230.98302 0.0015059659 
       207.6    511.27283    740.24445    231.65788 0.0015074557 
         208     498.9143    740.24445    232.29538 0.0015086972 
       208.4    509.67435    740.24445    232.69543 0.0015083947 
       208.8    499.76189    740.24445    233.11169 0.0015081981 
       209.2    505.17949    740.24445    233.67321 0.0015089404 
       209.6    486.89125    740.24445    234.05783 0.0015085397 
         210    495.27651    740.24445    234.60954 0.0015092153 
       210.4    494.65911    740.24445    235.03956 0.0015091071 
       210.8    501.50328    740.24445    235.51736 0.0015093055 
       211.2    495.83325    740.24445    236.13376 0.0015103897 
       211.6     501.7831    740.24445    236.53116 0.0015100716 
         212    502.55584    740.24445    236.92214 0.0015097138 
       212.4    506.12217    740.24445    237.34571 0.0015095646 
       212.8     506.6092    740.24445    237.65916  0.001508717 
       213.2    500.43368    740.24445    238.02561 0.0015082083 
       213.6    508.38162    740.24445    238.44979 0.0015080667 
         214    503.68702    740.24445    238.89147  0.001508036 
       214.4    493.23567    740.24445    239.37107 0.0015082444 
       214.8    498.57943    740.24445    239.90359 0.0015087848 
       215.2    494.77161    740.24445    240.33578 0.0015086934 
       215.6    500.19506    740.24445    240.94753 0.0015097275 
         216    498.32383    740.24445    241.33369 0.0015093468 
       216.4    499.14247    740.24445    241.78627 0.0015093822 
       216.8    494.68632    740.24445     242.2089 0.0015092308 
       217.2    503.83517    740.24445    242.55613  0.001508611 
       217.6    493.71965    740.24445    242.96902 0.0015084012 
         218    498.37557    740.24445     243.6193 0.0015096631 
       218.4    501.52286    740.24445    243.94439 0.0015089089 
       218.8     493.9508    740.24445    244.73035 0.0015110031 
       219.2    499.23578    740.24445    245.11613 0.0015106233 
       219.6    488.85456    740.24445    245.48203 0.0015101226 
         220     502.9768    740.24445    245.93534 0.0015101605 
       220.4      498.665    740.24445    246.38456 0.0015101731 
       220.8    505.49849    740.24445    246.83806 0.0015102119 
       221.2    503.48419    740.24445    247.14387 0.0015093486 
       221.6    495.15051    740.24445    247.58766 0.0015093295 
         222    500.14841    740.24445    248.08161 0.0015096158 
       222.4    501.33192    740.24445    248.51738 0.0015095477 
       222.8    497.09937    740.24445    248.93511 0.0015093703 
       223.2    502.69245    740.24445    249.22726 0.0015084336 
       223.6     497.6672    740.24445     249.5904 0.0015079291 
         224    503.56915    740.24445    250.23032 0.0015090956 
       224.4    500.63101    740.24445    250.61576  0.001508726 
       224.8    501.67927    740.24445    251.16543 0.0015093446 
       225.2    501.07618    740.24445    251.64293  0.001509528 
       225.6    496.60553    740.24445    252.07849 0.0015094597 
         226    500.05951    740.24445    252.55925 0.0015096619 
       226.4    490.85094    740.24445    252.94332 0.0015092863 
       226.8    499.16391    740.24445    253.29086 0.0015086945 
       227.2    499.28877    740.24445    253.66001 0.0015082333 
       227.6    489.54041    740.24445    254.04767 0.0015078835 
         228    499.47819    740.24445    254.47565 0.0015077739 
       228.4    489.50224    740.24445    254.95838 0.0015079885 
       228.8    489.05493    740.24445    255.46191 0.0015083252 
       229.2     486.6511    740.24445     255.8584 0.0015080297 
       229.6    502.23154    740.24445    256.26514 0.0015077957 
         230    498.02503    740.24445    256.58642 0.0015070605 
       230.4     500.9024    740.24445    257.01598 0.0015069627 
       230.8    499.49162    740.24445    257.49274 0.0015071415 
       231.2    501.68063    740.24445    257.91976  0.001507029 
       231.6    495.08273    740.24445    258.39327 0.0015071882 
         232    490.59943    740.24445    258.99763 0.0015081087 
       232.4    508.36141    740.24445     259.4063 0.0015078885 
       232.8    501.37355    740.24445    259.90396 0.0015081855 
       233.2    497.90226    740.24445    260.28626 0.0015078132 
       233.6    511.69612    740.24445    260.65335 0.0015073542 
         234    502.66778    740.24445    261.11523  0.001507444 
       234.4    496.62981    740.24445    261.55898  0.001507429 
       234.8    495.43513    740.24445    261.99191 0.0015073518 
       235.2    494.46378    740.24445    262.38011  0.001507018 
       235.6    509.69201    740.24445    262.78164 0.0015067617 
         236    507.40668    740.24445    263.12584 0.0015061781 
       236.4    495.33628    740.24445    263.65505 0.0015066538 
       236.8    489.80931    740.24445    264.22814 0.0015073781 
       237.2    492.19151    740.24445    264.45384 0.0015061216 
       237.6    503.72742    740.24445    264.84615 0.0015058166 
         238    496.20029    740.24445    265.38077 0.0015063203 
       238.4    497.45551    740.24445    265.82296 0.0015062986 
       238.8    506.40689    740.24445    266.32642 0.0015066236 
       239.2    511.56732    740.24445    266.78832 0.0015067128 
       239.6    498.32037    740.24445    267.16038 0.0015062952 
         240    513.05294    740.24445    267.53435 0.0015058896 
       240.4    500.51371    740.24445    267.89002 0.0015053827 
       240.8    498.89994    740.24445    268.43162 0.0015059205 
       241.2    495.44124    740.24445    268.93074 0.0015062185 
       241.6     500.9313    740.24445    269.41019 0.0015064056 
         242    499.06466    740.24445    269.88665 0.0015065754 
       242.4     503.7345    740.24445    270.24238 0.0015060718 
       242.8    509.36496    740.24445    270.72908 0.0015062986 
       243.2    499.25673    740.24445     271.0744 0.0015057393 
       243.6    500.44275    740.24445    271.59554 0.0015061568 
         244    494.98126    740.24445    271.91227 0.0015054413 
       244.4    499.20587    740.24445    272.36374 0.0015054728 
       244.8    499.19928    740.24445    272.94766 0.0015062352 
       245.2    496.99262    740.24445    273.31721 0.0015058141 
       245.6    494.63484    740.24445    273.74597   0.00150572 
         246    502.19841    740.24445    274.11344 0.0015052896 
       246.4    505.06589    740.24445    274.51276 0.0015050353 
       246.8    497.25859    740.24445    274.85299 0.0015044583 
       247.2    500.84836    740.24445    275.27371 0.0015043231 
       247.6    492.41594    740.24445    275.78881 0.0015047032 
         248     499.3983    740.24445    276.09057   0.00150392 
       248.4    487.00498    740.24445    276.46254 0.0015035212 
       248.8     495.2332    740.24445     276.9297 0.0015036404 
       249.2    496.35277    740.24445     277.2748 0.0015030977 
       249.6    500.12694    740.24445    277.66484 0.0015027999 
         250     491.5846    740.24445    278.22905 0.0015034442 
       250.4    496.81131    740.24445    278.82379 0.0015042511 
       250.8    499.86124    740.24445    279.31193 0.0015044813 
       251.2    500.78206    740.24445    279.77605 0.0015045816 
       251.6    493.97745    740.24445    280.42593 0.0015056789 
         252    501.01891    740.24445     280.7943 0.0015052637 
       252.4    496.30807    740.24445    281.14342 0.0015047467 
       252.8    503.12217    740.24445    281.64413 0.0015050415 
       253.2    498.99221    740.24445    282.03273 0.0015047372 
       253.6    506.88592    740.24445    282.61971 0.0015054906 
         254    497.43839    740.24445    282.96378 0.0015049497 
       254.4    500.87707    740.24445    283.30299 0.0015043846 
       254.8    503.41761    740.24445     283.8222 0.0015047757 
       255.2    515.60348    740.24445    284.34068 0.0015051617 
       255.6    501.31785    740.24445    284.84594 0.0015054766 
         256    498.15884    740.24445    285.39215 0.0015060067 
       256.4    490.70504    740.24445    285.80582 0.0015058367 
       256.8    508.72084    740.24445     286.1748 0.0015054322 
       257.2     499.6479    740.24445    286.80464 0.0015063991 
       257.6    507.23051    740.24445      287.401 0.0015071874 
         258    498.70177    740.24445    288.05992 0.0015083008 
       258.4    495.97854    740.24445    288.41178 0.0015078055 
       258.8    496.55504    740.24445    288.91673 0.0015081109 
       259.2     498.1957    740.24445    289.20879 0.0015073057 
       259.6    486.30207    740.24445    289.53882 0.0015067006 
         260     507.3025    740.24445    290.02248 0.0015068956 
       260.4    500.94455    740.24445    290.40949 0.0015065886 
       260.8    503.53812    740.24445    290.85235 0.0015065718 
       261.2    494.63752    740.24445    291.25017 0.0015063221 
       261.6    503.33182    740.24445    291.61964 0.0015059268 
         262    500.52749    740.24445    292.13329 0.0015062761 
       262.4    494.45652    740.24445    292.76291 0.0015072214 
       262.8    494.67376    740.24445    293.14088 0.0015068703 
       263.2    504.40976    740.24445    293.62452 0.0015070625 
       263.6    498.43499    740.24445    293.97544  0.001506574 
         264    507.99764    740.24445    294.50673   0.00150701 
       264.4    513.13093    740.24445    295.23059 0.0015084286 
       264.8    508.23197    740.24445    295.70426 0.0015085664 
       265.2    491.23789    740.24445    296.12084 0.0015084131 
       265.6    491.76397    740.24445    296.64376 0.0015088011 
         266    509.57371    740.24445    297.05789 0.0015086354 
       266.4    497.80493    740.24445    297.45527 0.0015083853 
       266.8    494.81367    740.24445    297.94005 0.0015085784 
       267.2    492.01415    740.24445    298.33791 0.0015083316 
       267.6    495.96157    740.24445    298.86641  0.001508745 
         268    503.17582    740.24445    299.27346  0.001508545 
       268.4    502.95946    740.24445    299.92898 0.0015095961 
       268.8    510.50728    740.24445    300.49971  0.001510218 
       269.2    502.49834    740.24445    301.00476 0.0015105084 
       269.6    504.68775    740.24445    301.36917 0.0015100933 
         270     499.8792    740.24445    301.80084 0.0015100159 
       270.4    498.73666    740.24445    302.16749 0.0015096139 
       270.8    496.34168    740.24445    302.55106 0.0015092975 
       271.2    507.42307    740.24445    302.95363 0.0015090767 
       271.6      505.485    740.24445    303.46017 0.0015093737 
         272    503.24306    740.24445    304.03882 0.0015100279 
       272.4    491.85524    740.24445     304.3696  0.001509451 
       272.8    504.13796    740.24445    304.72208 0.0015089832 
       273.2    497.96211    740.24445    305.25606 0.0015094142 
       273.6    496.10876    740.24445    305.74946 0.0015096437 
         274    505.41444    740.24445    306.15996 0.0015094637 
       274.4    508.50477    740.24445    306.74227 0.0015101301 
       274.8    505.90366    740.24445    307.29148 0.0015106318 
       275.2    504.73066    740.24445    307.82208 0.0015110408 
       275.6    500.94546    740.24445    308.22086 0.0015108024 
         276    494.09067    740.24445    308.56654 0.0015103047 
       276.4    507.92764    740.24445    309.01835 0.0015103273 
       276.8    504.00295    740.24445    309.63659  0.001511162 
       277.2    504.49059    740.24445    310.10339 0.0015112563 
       277.6    508.24653    740.24445    310.58902 0.0015114419 
         278    494.78629    740.24445    310.94063 0.0015109758 
       278.4    492.28967    740.24445    311.39429 0.0015110062 
       278.8    503.28699    740.24445    312.06156 0.0015120716 
       279.2     512.4314    740.24445    312.49765 0.0015120153 
       279.6    508.26593    740.24445    313.14015 0.0015129564 
         280    506.81157    740.24445    313.50349 0.0015125481 
       280.4    490.68244    740.24445    313.92846 0.0015124378 
       280.8    501.94219    740.24445    314.45791 0.0015128305 
       281.2    493.47483    740.24445    314.82971 0.0015124647 
       281.6    510.03663    740.24445    315.30139  0.001512579 
         282    507.67291    740.24445    315.67005 0.0015121996 
       282.4    496.65284    740.24445    316.19378  0.001512563 
       282.8    500.93777    740.24445    316.63419 0.0015125274 
       283.2    510.57412    740.24445    317.12927 0.0015127527 
       283.6    495.57632    740.24445    317.65696 0.0015131326 
         284     503.4411    740.24445    318.06799 0.0015129566 
       284.4    497.46721    740.24445    318.60161 0.0015133634 
       284.8    498.41568    740.24445    319.25465 0.0015143354 
       285.2    504.17609    740.24445    319.82673 0.0015149213 
       285.6    492.35987    740.24445    320.32007 0.0015151331 
         286    504.30762    740.24445    320.80452 0.0015153023 
       286.4    500.44435    740.24445    321.30313 0.0015155378 
       286.8    496.70153    740.24445    321.83598  0.001515934 
       287.2    498.67807    740.24445     322.3075 0.0015160405 
       287.6    501.59069    740.24445    322.75957 0.0015160554 
         288    498.94876    740.24445    323.08681 0.0015154848 
       288.4    498.07859    740.24445    323.50838 0.0015153576 
       288.8    500.30791    740.24445    323.95142 0.0015153311 
       289.2    500.28142    740.24445    324.44692 0.0015155498 
       289.6    497.55412    740.24445    324.95322 0.0015158182 
         290    494.10207    740.24445    325.36893 0.0015156639 
       290.4    508.24883    740.24445    325.76492 0.0015154183 
       290.8    494.13026    740.24445    326.16632 0.0015151986 
       291.2    506.22475    740.24445    326.61923 0.0015152183 
       291.6    497.36957    740.24445    327.12322 0.0015154747 
         292    505.90517    740.24445    327.49303 0.0015151096 
       292.4     512.9667    740.24445    327.84118 0.0015146454 
       292.8    489.28427    740.24445    328.17965 0.0015141379 
       293.2    501.84017    740.24445    328.70149 0.0015144765 
       293.6    500.85231    740.24445    329.17391 0.0015145869 
         294    501.23885    740.24445    329.62275 0.0015145886 
       294.4    496.02467    740.24445    330.02277 0.0015143663 
       294.8    495.64916    740.24445    330.47216 0.0015143708 
       295.2    504.23772    740.24445    330.99618 0.0015147169 
       295.6    506.98344    740.24445    331.45477  0.001514763 
         296    500.49584    740.24445    331.98282 0.0015151259 
       296.4    493.71103    740.24445    332.48627 0.0015153758 
       296.8    501.62804    740.24445    332.98561 0.0015156063 
       297.2     500.4214    740.24445     333.3264 0.0015151155 
       297.6    496.08864    740.24445    333.64017 0.0015145034 
         298    491.06331    740.24445    334.18021 0.0015149186 
       298.4    488.84378    740.24445    334.66482 0.0015150818 
       298.8    503.39074    740.24445    334.96274 0.0015144005 
       299.2    498.34005    740.24445    335.41913 0.0015144366 
       299.6    506.99963    740.24445    335.77117 0.0015140019 
         300    510.91398    740.24445    336.33348 0.0015145154 
       300.4    503.73499    740.24445     336.7698 0.0015144609 
       300.8    493.24267    740.24445    337.15226 0.0015141646 
       301.2    505.43845    740.24445    337.66673 0.0015144612 
       301.6    497.53612    740.24445    338.19803 0.0015148323 
         302    503.34068    740.24445    338.51025 0.0015142226 
       302.4    503.07969    740.24445    338.88134 0.0015138774 
       302.8    514.64935    740.24445    339.34502 0.0015139462 
       303.2     498.9105    740.24445    339.75407 0.0015137714 
       303.6    493.58023    740.24445     340.1093 0.0015133577 
         304    513.81032    740.24445    340.52069 0.0015131945 
       304.4    507.21216    740.24445    341.11884 0.0015138607 
       304.8    502.11082    740.24445    341.72289 0.0015145511 
       305.2    506.85889    740.24445    342.13803 0.0015144037 
       305.6    491.94514    740.24445    342.51446 0.0015140855 
         306     502.8459    740.24445    342.91008 0.0015138529 
       306.4    506.63877    740.24445     343.2739 0.0015134806 
       306.8    509.49641    740.24445    343.79145 0.0015137862 
       307.2    500.38008    740.24445    344.23158 0.0015137506 
       307.6    490.58827    740.24445    344.70254 0.0015138505 
         308     505.3268    740.24445    345.13838 0.0015137961 
       308.4    505.87448    740.24445    345.65872  0.001514112 
       308.8    493.95334    740.24445    346.15536 0.0015143233 
       309.2    493.26148    740.24445    346.63462 0.0015144582 
       309.6    490.71714    740.24445    347.10013 0.0015145328 
         310    498.42809    740.24445    347.48613 0.0015142606 
       310.4    499.86255    740.24445    347.95533 0.0015143513 
       310.8    522.04533    740.24445    348.58198  0.001515126 
       311.2    502.85916    740.24445    349.14779 0.0015156347 
       311.6    505.53243    740.24445    349.50238 0.0015152264 
         312     505.2665    740.24445    349.92315 0.0015151056 
       312.4    502.70529    740.24445    350.46628 0.0015155144 
       312.8    500.29871    740.24445    350.91728 0.0015155241 
       313.2    508.36042    740.24445    351.37048 0.0015155433 
       313.6    511.51243    740.24445    351.87093 0.0015157661 
         314    505.24668    740.24445    352.33591 0.0015158356 
       314.4    503.93556    740.24445    352.74978 0.0015156853 
       314.8    499.87025    740.24445    353.10167 0.0015152695 
       315.2    503.89323    740.24445    353.52223  0.001515149 
       315.6    498.00519    740.24445    353.98291 0.0015152006 
         316    495.09671    740.24445    354.48105 0.0015154122 
       316.4    504.84998    740.24445    354.93425 0.0015154314 
       316.8     506.5508    740.24445    355.35266 0.0015153021 
       317.2    499.47988    740.24445    355.75454 0.0015151028 
       317.6    493.26031    740.24445    356.23547 0.0015152403 
         318    501.73027    740.24445    356.60334 0.0015148971 
       318.4    507.26657    740.24445    357.03061 0.0015148068 
       318.8    495.22887    740.24445    357.52361 0.0015149952 
       319.2     497.8773    740.24445    357.98822  0.001515063 
       319.6    507.16349    740.24445    358.32726 0.0015145999 
         320    510.47025    740.24445     358.7174 0.0015143536 
       320.4    508.08243    740.24445    359.37782 0.0015152476 
       320.8    510.17974    740.24445    359.73555 0.0015148647 
       321.2    502.66664    740.24445    360.07519 0.0015144066 
       321.6    505.23575    740.24445    360.50814 0.0015143417 
         322    493.32864    740.24445     360.9881 0.0015144741 
       322.4    502.78889    740.24445    361.42604 0.0015144302 
       322.8    509.47448    740.24445    361.90214  0.001514546 
       323.2    513.94586    740.24445    362.46711  0.001515033 
       323.6    498.86829    740.24445    362.93295  0.001515105 
         324    500.96978    740.24445    363.32733 0.0015148788 
       324.4    499.06146    740.24445    363.78511 0.0015149173 
       324.8    496.82643    740.24445    364.04833 0.0015141464 
       325.2    496.69426    740.24445    364.34788 0.0015135283 
       325.6    499.83813    740.24445    364.74501 0.0015133166 
         326    511.33413    740.24445    365.26468 0.0015136132 
       326.4    485.01778    740.24445    365.68892 0.0015135142 
       326.8    500.25014    740.24445    366.17986 0.0015136911 
       327.2    507.40979    740.24445    366.67774 0.0015138962 
       327.6    501.32119    740.24445     367.2291 0.0015143213 
         328    501.49595    740.24445    367.68768 0.0015143633 
       328.4    510.48694    740.24445     368.1863 0.0015145699 
       328.8    510.10602    740.24445    368.73099 0.0015149653 
       329.2    501.09916    740.24445    369.28469 0.0015153966 
       329.6    514.10415    740.24445     369.6204 0.0015149335 
         330    507.23534    740.24445    370.13988 0.0015152238 
       330.4    499.02943    740.24445    370.59742 0.0015152601 
       330.8    495.94651    740.24445    370.95379 0.0015148832 
       331.2    495.33526    740.24445    371.30467 0.0015144848 
       331.6    486.18206    740.24445    371.74196 0.0015144394 
         332    505.54718    740.24445    372.15929 0.0015143129 
       332.4     500.9184    740.24445    372.62118 0.0015143678 
       332.8    499.32575    740.24445    373.10631 0.0015145169 
       333.2    503.36402    740.24445    373.42828 0.0015140041 
       333.6    501.67681    740.24445    373.92188 0.0015141876 
         334    502.15773    740.24445     374.2984 0.0015138971 
       334.4    500.11963    740.24445    374.72135 0.0015137948 
       334.8    505.56772    740.24445    375.12455 0.0015136131 
       335.2    493.93804    740.24445    375.52173 0.0015134076 
       335.6    507.66557    740.24445    375.96822  0.001513401 
         336     495.2031    740.24445    376.49184 0.0015137046 
       336.4    502.83737    740.24445    376.95016 0.0015137452 
       336.8    502.56221    740.24445    377.40306  0.001513764 
       337.2    512.25664    740.24445    377.81075 0.0015136016 
       337.6    517.91356    740.24445    378.15983 0.0015132051 
         338    505.33496    740.24445    378.55152 0.0015129798 
       338.4    487.26561    740.24445    378.88912 0.0015125391 
       338.8    499.82167    740.24445    379.28232 0.0015123212 
       339.2    502.07706    740.24445    379.81637 0.0015126647 
       339.6    504.69505    740.24445    380.25156 0.0015126141 
         340     499.7593    740.24445    380.61415 0.0015122753 
       340.4     511.2368    740.24445    380.96653 0.0015118967 
       340.8    507.95651    740.24445    381.48952 0.0015121952 
       341.2    500.48298    740.24445    381.93591 0.0015121898 
       341.6    503.32633    740.24445    382.50815 0.0015126821 
         342     502.3611    740.24445    383.01771 0.0015129257 
       342.4    501.24749    740.24445    383.38144 0.0015125933 
       342.8    505.38457    740.24445    383.76572 0.0015123427 
       343.2    510.36631    740.24445    384.12603 0.0015119983 
       343.6    496.13802    740.24445    384.67618 0.0015124011 
         344    493.12832    740.24445    385.23051 0.0015128193 
       344.4    507.22076    740.24445    385.94204 0.0015138533 
       344.8    488.99454    740.24445    386.41577 0.0015139531 
       345.2    507.26928    740.24445    387.00371 0.0015144997 
       345.6    501.42442    740.24445    387.54292 0.0015148545 
         346    493.32505    740.24445    388.00449 0.0015149053 
       346.4    499.09491    740.24445    388.38008 0.0015146208 
       346.8    497.01672    740.24445    388.77087  0.001514396 
       347.2    501.55529    740.24445    389.21954 0.0015143971 
       347.6    500.82883    740.24445    389.59282 0.0015141051 
         348      484.948    740.24445    390.02346 0.0015140364 
       348.4    510.85804    740.24445    390.55173 0.0015143465 
       348.8    491.68364    740.24445    390.99009 0.0015143076 
       349.2    492.26256    740.24445    391.34923 0.0015139624 
       349.6    507.31223    740.24445    391.76061 0.0015138198 
         350     502.2612    740.24445    392.17441 0.0015136869 
       350.4    494.53005    740.24445    392.73042 0.0015141025 
       350.8    494.79306    740.24445    393.11222 0.0015138464 
       351.2    505.11475    740.24445    393.46143 0.0015134654 
       351.6    496.10099    740.24445    393.86617 0.0015132987 
         352    493.16366    740.24445    394.42635 0.0015137289 
       352.4    498.06698    740.24445    394.80788 0.0015134733 
       352.8    511.25302    740.24445    395.25397 0.0015134654 
       353.2    497.86246    740.24445    395.61328 0.0015131257 
       353.6     494.8574    740.24445    396.00485   0.00151291 
         354    506.79193    740.24445    396.38027 0.0015126331 
       354.4    503.52836    740.24445    396.75407 0.0015123507 
       354.8    502.74297    740.24445    397.18701 0.0015122941 
       355.2    507.46706    740.24445    397.55815 0.0015120026 
       355.6    496.74395    740.24445    398.03076 0.0015120973 
         356     496.0808    740.24445    398.55496 0.0015123875 
       356.4    505.33587    740.24445    399.09132  0.001512723 
       356.8    501.17325    740.24445    399.64852 0.0015131368 
       357.2    504.70163    740.24445    400.08708  0.001513101 
       357.6    497.93858    740.24445    400.75815 0.0015139436 
         358    496.91926    740.24445    401.15888 0.0015137642 
       358.4    507.53426    740.24445    401.59497 0.0015137184 
       358.8    507.91712    740.24445    402.05508 0.0015137632 
       359.2    508.55077    740.24445    402.45886 0.0015135961 
       359.6    494.90438    740.24445    403.11509 0.0015143777 
         360    496.96938    740.24445    403.51954 0.0015142128 
       360.4    485.37096    740.24445     404.0343 0.0015144617 
       360.8    510.97976    740.24445    404.59842 0.0015148949 
       361.2    494.92306    740.24445    404.98963 0.0015146804 
       361.6    498.29791    740.24445    405.52113 0.0015149905 
         362    505.35934    740.24445    405.90024 0.0015147312 
       362.4    509.82384    740.24445    406.48861 0.0015152526 
       362.8    504.43679    740.24445    407.00941 0.0015155212 
       363.2    499.68028    740.24445    407.43292 0.0015154273 
       363.6    495.38849    740.24445    407.83471  0.001515253 
         364    494.91341    740.24445    408.30557 0.0015153354 
       364.4     509.4117    740.24445    408.69967  0.001515133 
       364.8    494.70087    740.24445     409.0835  0.001514893 
       365.2     497.7078    740.24445     409.4574 0.0015146169 
       365.6    507.45519    740.24445    409.92945  0.001514704 
         366    503.93915    740.24445     410.3444 0.0015145802 
       366.4      488.854    740.24445    410.67739 0.0015141544 
       366.8    496.01772    740.24445    411.16008 0.0015142809 
       367.2    501.36494    740.24445    411.71442 0.0015146708 
       367.6    509.34435    740.24445    412.13962 0.0015145852 
         368    503.15922    740.24445     412.6073 0.0015146557 
       368.4    508.66439    740.24445    413.17402 0.0015150893 
       368.8    502.56215    740.24445    413.56273 0.0015148698 
       369.2    498.88648    740.24445    414.04833 0.0015150054 
       369.6    486.51438    740.24445    414.69002 0.0015157112 
         370    504.34145    740.24445    415.10203 0.0015155769 
       370.4    509.11864    740.24445    415.71365 0.0015161709 
       370.8    501.30701    740.24445    416.12768 0.0015160437 
       371.2    504.82337    740.24445    416.58254 0.0015160654 
       371.6    502.15762    740.24445    417.10588  0.001516336 
         372    494.58982    740.24445    417.62597 0.0015165942 
       372.4    491.25452    740.24445    418.03543 0.0015164506 
       372.8    497.36263    740.24445    418.51241 0.0015165519 
       373.2    499.22148    740.24445    418.86214 0.0015161924 
       373.6    486.06796    740.24445    419.17132  0.001515687 
         374    495.65737    740.24445    419.64148 0.0015157642 
       374.4    499.14807    740.24445    420.06331 0.0015156668 
       374.8    493.58817    740.24445    420.44736 0.0015154335 
       375.2    494.94771    740.24445    420.88172 0.0015153818 
       375.6    497.27555    740.24445    421.31494 0.0015153261 
         376     505.2679    740.24445    421.81429 0.0015155082 
       376.4    499.20232    740.24445    422.44588 0.0015161644 
       376.8    497.82583    740.24445    422.82969 0.0015159309 
       377.2    509.43449    740.24445    423.19261 0.0015156231 
       377.6    507.20086    740.24445    423.59813 0.0015154684 
         378    502.75298    740.24445    424.12777 0.0015157576 
       378.4    499.54694    740.24445    424.50821 0.0015155135 
       378.8    505.40608    740.24445    424.97869  0.001515591 
       379.2    507.90528    740.24445    425.77958 0.0015168455 
       379.6    492.23027    740.24445    426.47143 0.0015177092 
         380    506.16722    740.24445    426.93159 0.0015177475 
       380.4    496.93088    740.24445    427.33793 0.0015175946 
       380.8    494.66322    740.24445       427.63 0.0015170366 
       381.2    497.23617    740.24445    428.07291 0.0015170144 
       381.6    489.57669    740.24445    428.44191 0.0015167305 
         382    491.67161    740.24445    428.77231 0.0015163107 
       382.4    503.00759    740.24445    429.30237 0.0015165972 
       382.8    500.38326    740.24445    429.65244 0.0015162478 
       383.2      501.025    740.24445    430.07768 0.0015161642 
       383.6    500.52327    740.24445    430.73389 0.0015168942 
         384    498.26339    740.24445    431.16734 0.0015168389 
       384.4    499.18152    740.24445    431.62945 0.0015168845 
       384.8    498.92113    740.24445    431.98938 0.0015165714 
       385.2    493.60891    740.24445    432.49464 0.0015167685 
       385.6    492.28386    740.24445    432.91001 0.0015166503 
         386    495.51983    740.24445    433.39544 0.0015167775 
       386.4    495.22285    740.24445    433.81659 0.0015166797 
       386.8    509.49055    740.24445    434.17885 0.0015163765 
       387.2    500.33699    740.24445    434.65215 0.0015164613 
       387.6     504.9681    740.24445    435.14467 0.0015166129 
         388    515.73548    740.24445    435.49243 0.0015162602 
       388.4    486.84359    740.24445    435.94197 0.0015162622 
       388.8    491.06123    740.24445    436.32073 0.0015160182 
       389.2    510.16416    740.24445    436.74781 0.0015159425 
       389.6    490.91813    740.24445    437.12935 0.0015157091 
         390    498.81549    740.24445    437.54769 0.0015156036 
       390.4    504.66467    740.24445    438.08829 0.0015159214 
       390.8    495.85126    740.24445    438.40894 0.0015154782 
       391.2    489.19696    740.24445    438.78999 0.0015152445 
       391.6    514.37258    740.24445    439.29357 0.0015154339 
         392    493.31684    740.24445    440.00396 0.0015163357 
       392.4    493.73108    740.24445    440.34062  0.001515949 
       392.8     501.3288    740.24445    440.67449 0.0015155535 
       393.2    508.47023    740.24445    441.29397 0.0015161401 
       393.6    496.81608    740.24445    441.75069 0.0015161668 
         394    502.50041    740.24445     442.0959 0.0015158112 
       394.4    497.73789    740.24445    442.62086 0.0015160719 
       394.8      500.461    740.24445    443.01678 0.0015158907 
       395.2    496.06133    740.24445    443.45009 0.0015158375 
       395.6    491.56009    740.24445    443.83645 0.0015156242 
         396    497.41219    740.24445    444.24073 0.0015154724 
       396.4    495.43558    740.24445    444.59589 0.0015151535 
       396.8    490.94558    740.24445    444.90677 0.0015146845 
       397.2    500.71322    740.24445    445.25698 0.0015143503 
       397.6    504.07464    740.24445     445.8249 0.0015147563 
         398    488.95887    740.24445    446.16458  0.001514387 
       398.4    510.45502    740.24445    446.64866 0.0015145079 
       398.8    508.68464    740.24445    447.15453 0.0015147024 
       399.2    499.93824    740.24445    447.72389 0.0015151114 
       399.6    492.84376    740.24445    448.12241 0.0015149421 
         400    496.59417    740.24445    448.66347 0.0015152544 
       400.4      499.907    740.24445    449.17581 0.0015154693 
       400.8    500.35277    740.24445    449.65133 0.0015155596 
       401.2    504.39098    740.24445    450.02788 0.0015153164 
       401.6    504.88036    740.24445    450.51067 0.0015154312 
         402    507.18895    740.24445    450.97367 0.0015154792 
       402.4    506.36955    740.24445    451.71555 0.0015164633 
       402.8    486.51489    740.24445    452.09606 0.0015162335 
       403.2    497.29266    740.24445    452.64128 0.0015165561 
       403.6    503.09826    740.24445    453.01236 0.0015162951 
         404    514.72034    740.24445    453.42788 0.0015161833 
       404.4    499.95919    740.24445    453.79026 0.0015158941 
       404.8    502.34592    740.24445     454.1893 0.0015157279 
       405.2    494.68294    740.24445    454.56748 0.0015154924 
       405.6    497.10482    740.24445    454.99696 0.0015154283 
         406    498.26702    740.24445    455.44022 0.0015154101 
       406.4    503.88921    740.24445    456.04773  0.001515938 
       406.8    505.69162    740.24445    456.56511 0.0015161655 
       407.2    495.12843    740.24445    457.01004 0.0015161523 
       407.6    501.98987    740.24445    457.57929  0.001516551 
         408    498.95886    740.24445    457.95056 0.0015162935 
       408.4    508.80858    740.24445    458.33337 0.0015160746 
       408.8     494.0167    740.24445    458.69757 0.0015157947 
       409.2    507.13849    740.24445    459.12815 0.0015157345 
       409.6    501.09793    740.24445    459.50175 0.0015154865 
         410    507.02307    740.24445    459.98062 0.0015155858 
       410.4    507.06283    740.24445    460.31832 0.0015152202 
       410.8    500.96717    740.24445    460.74148 0.0015151364 
       411.2    491.33699    740.24445    461.02412  0.001514591 
       411.6    492.88925    740.24445    461.26294 0.0015139029 
         412     495.1646    740.24445    461.68657 0.0015138222 
       412.4    500.07572    740.24445    462.22013 0.0015141017 
       412.8    501.78697    740.24445     462.6554  0.001514059 
       413.2    509.14936    740.24445    463.07218 0.0015139559 
       413.6     485.5244    740.24445    463.66395 0.0015144245 
         414    491.41315    740.24445    464.03983 0.0015141879 
       414.4    498.42502    740.24445    464.47041 0.0015141299 
       414.8    502.95032    740.24445    464.89092 0.0015140393 
       415.2    493.88043    740.24445    465.30439  0.001513926 
       415.6    500.07787    740.24445    465.77223 0.0015139896 
         416    496.77572    740.24445    466.37434 0.0015144891 
       416.4     505.4716    740.24445    466.77683   0.00151434 
       416.8    508.71539    740.24445    467.28816  0.001514544 
       417.2     503.9995    740.24445    467.70861 0.0015144534 
       417.6    507.08711    740.24445    467.99758 0.0015139375 
         418    501.76083    740.24445    468.52161 0.0015141824 
       418.4    510.60379    740.24445    468.87628 0.0015138799 
       418.8     501.4875    740.24445     469.3253 0.0015138824 
       419.2    499.01862    740.24445    469.81811  0.001514026 
       419.6    501.75424    740.24445    470.32764 0.0015142231 
         420    493.20735    740.24445    470.91272 0.0015146628 
       420.4    507.42733    740.24445    471.36906 0.0015146881 
       420.8    502.13165    740.24445    471.77258 0.0015145437 
       421.2    512.92145    740.24445    472.18386 0.0015144245 
       421.6    492.14764    740.24445    472.52361 0.0015140763 
         422    499.66706    740.24445     472.8515 0.0015136908 
       422.4    493.31311    740.24445    473.47934 0.0015142653 
       422.8    493.30112    740.24445    473.89859 0.0015141722 
       423.2    512.60512    740.24445    474.36048 0.0015142155 
       423.6    506.59039    740.24445    475.02501 0.0015149049 
         424    497.43446    740.24445    475.44095  0.001514801 
       424.4    508.75622    740.24445    475.89469 0.0015148175 
       424.8     508.2465    740.24445     476.2859 0.0015146352 
       425.2    512.16664    740.24445    476.90528 0.0015151782 
       425.6    505.69252    740.24445    477.28189 0.0015149496 
         426      504.954    740.24445    477.85455 0.0015153431 
       426.4    507.71829    740.24445    478.48449 0.0015159173 
       426.8    504.07859    740.24445    479.21044 0.0015167944 
       427.2    496.52093    740.24445    479.75518 0.0015170967 
       427.6    496.54352    740.24445    480.14647 0.0015169137 
         428    493.33383    740.24445    480.65048 0.0015170869 
       428.4    501.37536    740.24445     481.0145 0.0015168182 
       428.8    496.83279    740.24445    481.51814   0.00151699 
       429.2      502.868    740.24445    481.96752 0.0015169906 
       429.6    508.00146    740.24445    482.39341 0.0015169174 
         430    507.43607    740.24445    482.89431   0.00151708 
       430.4    505.98114    740.24445    483.31846 0.0015170013 
       430.8    499.81985    740.24445    483.74566 0.0015169324 
       431.2    499.50909    740.24445    484.21393 0.0015169923 
       431.6    503.98645    740.24445    484.72302 0.0015171798 
         432    505.69112    740.24445    485.20959 0.0015172965 
       432.4      497.648    740.24445    485.74607  0.001517569 
       432.8    500.87603    740.24445    486.25071 0.0015177416 
       433.2    495.65715    740.24445    486.57814 0.0015173612 
       433.6    494.58504    740.24445     486.8912 0.0015169368 
         434    491.26163    740.24445    487.40501 0.0015171381 
       434.4    499.61587    740.24445    487.97907 0.0015175263 
       434.8     504.1931    740.24445    488.37549 0.0015173619 
       435.2    498.12525    740.24445    488.86211 0.0015174778 
       435.6    489.51297    740.24445    489.41774 0.0015178074 
         436    501.87711    740.24445    489.81202 0.0015176366 
       436.4    492.59651    740.24445    490.20647 0.0015174666 
       436.8    492.77849    740.24445    490.62715  0.001517378 
       437.2    513.70205    740.24445    491.10408 0.0015174634 
       437.6    510.53519    740.24445    491.53369 0.0015174026 
         438    491.44901    740.24445    492.02257 0.0015175246 
       438.4    503.46862    740.24445    492.36336 0.0015171902 
       438.8    505.53761    740.24445    492.94508  0.001517598 
       439.2    489.91766    740.24445    493.44517 0.0015177541 
       439.6    499.57398    740.24445    493.96851 0.0015179813 
         440    494.44157    740.24445     494.3798 0.0015178641 
       440.4    504.84138    740.24445    494.82957 0.0015178651 
       440.8    507.92066    740.24445    495.27852 0.0015178636 
       441.2    496.59966    740.24445    495.75603 0.0015179496 
       441.6    502.88996    740.24445    496.19455 0.0015179161 
         442     496.8503    740.24445    496.54214 0.0015176048 
       442.4    495.68337    740.24445    497.00969 0.0015176603 
       442.8    497.76504    740.24445    497.33875 0.0015172933 
       443.2     501.2567    740.24445    497.70578 0.0015170426 
       443.6    494.87209    740.24445     498.1039  0.001516887 
         444    496.47635    740.24445    498.57523 0.0015169545 
       444.4    506.49263    740.24445    498.98859 0.0015168457 
       444.8    491.54382    740.24445    499.54572 0.0015171737 
       445.2    499.71942    740.24445    499.97329 0.0015171079 
       445.6    507.49698    740.24445    500.79616 0.0015182408 
         446    511.88742    740.24445    501.10501 0.0015178146 
       446.4    502.45685    740.24445    501.55219 0.0015178078 
       446.8    502.94036    740.24445    502.05265 0.0015179621 
       447.2     491.3119    740.24445    502.70867 0.0015185861 
       447.6    509.69118    740.24445    503.14911 0.0015185583 
         448    498.70036    740.24445    503.56725 0.0015184633 
       448.4     503.6459    740.24445    503.95272 0.0015182701 
       448.8    503.74491    740.24445    504.42326 0.0015183332 
       449.2    499.24142    740.24445    504.93169 0.0015185102 
       449.6    509.82339    740.24445    505.40193 0.0015185722 
         450    495.72493    740.24445    505.95038 0.0015188688 
       450.4    494.04878    740.24445    506.35812 0.0015187428 
       450.8    498.68784    740.24445     507.0727 0.0015195366 
       451.2    499.50529    740.24445    507.64308 0.0015198972 
       451.6     506.5005    740.24445    508.11735 0.0015199697 
         452    506.82788    740.24445    508.67274 0.0015202845 
       452.4    498.31527    740.24445    509.20756 0.0015205373 
       452.8    507.53655    740.24445    509.55722 0.0015202373 
       453.2    503.31183    740.24445    509.97685 0.0015201463 
       453.6    497.33434    740.24445    510.38386  0.001520018 
         454     503.8965    740.24445    510.89129 0.0015201887 
       454.4    491.55138    740.24445    511.23478 0.0015198716 
       454.8    506.73939    740.24445    511.69325 0.0015198967 
       455.2    495.49402    740.24445    512.14059 0.0015198887 
       455.6     510.2743    740.24445    512.56119 0.0015198014 
         456    498.38298    740.24445    513.04267 0.0015198946 
       456.4    501.96159    740.24445      513.624 0.0015202833 
       456.8    507.38104    740.24445    514.15781 0.0015205307 
       457.2    511.79308    740.24445    514.64042 0.0015206263 
       457.6    501.65041    740.24445    515.08147 0.0015205992 
         458    498.80522    740.24445    515.44588  0.001520346 
       458.4     500.8962    740.24445    515.96123 0.0015205381 
       458.8    502.79071    740.24445    516.47128 0.0015207142 
       459.2    492.70366    740.24445    516.80566 0.0015203732 
       459.6    504.76626    740.24445     517.3044  0.001520516 
         460    505.09271    740.24445     517.7893 0.0015206178 
       460.4    494.95131    740.24445    518.14738 0.0015203474 
       460.8    497.70334    740.24445     518.7638 0.0015208348 
       461.2    511.32802    740.24445    519.32083 0.0015211473 
       461.6      498.933    740.24445    519.79587 0.0015212194 
         462    497.84017    740.24445    520.19448 0.0015210679 
       462.4    504.19188    740.24445    520.64782 0.0015210765 
       462.8    508.37122    740.24445    521.00624 0.0015208081 
       463.2     489.0003    740.24445    521.40076 0.0015206454 
       463.6    497.08679    740.24445    522.01624 0.0015211268 
         464    506.33108    740.24445    522.44084 0.0015210517 
       464.4    498.80404    740.24445    522.77861 0.0015207241 
       464.8    493.27119    740.24445      523.313 0.0015209686 
       465.2    492.60691    740.24445    523.79182 0.0015210512 
       465.6    501.29466    740.24445    524.18133 0.0015208746 
         466    508.97987    740.24445    524.58261 0.0015207324 
       466.4    499.07533    740.24445    524.99243 0.0015206152 
       466.8    499.36083    740.24445    525.49218 0.0015207585 
       467.2    494.74786    740.24445    525.85417 0.0015205032 
       467.6    501.32105    740.24445     526.3156 0.0015205355 
         468      498.566    740.24445    526.87889 0.0015208619 
       468.4    513.16702    740.24445    527.20284 0.0015204974 
       468.8    498.51844    740.24445    527.59821 0.0015203394 
       469.2    507.64962    740.24445    528.02761 0.0015202796 
       469.6    493.30707    740.24445    528.48304 0.0015202948 
         470    499.84685    740.24445    529.14604 0.0015209065 
       470.4    497.25768    740.24445     529.7113 0.0015212366 
       470.8    504.93368    740.24445    530.14481  0.001521188 
       471.2    497.94756    740.24445    530.57963 0.0015211433 
       471.6    500.41326    740.24445    531.00972 0.0015210851 
         472    491.79244    740.24445    531.39273 0.0015208923 
       472.4    497.05652    740.24445    531.89007 0.0015210267 
       472.8    490.09401    740.24445    532.20209 0.0015206314 
       473.2    498.82138    740.24445    532.59378 0.0015204642 
       473.6    497.97357    740.24445    532.98946 0.0015203087 
         474    506.92617    740.24445    533.42765 0.0015202745 
       474.4    496.07774    740.24445    533.73005 0.0015198538 
       474.8    511.90047    740.24445    534.19259 0.0015198894 
       475.2    495.32991    740.24445    534.59736 0.0015197607 
       475.6    506.48229    740.24445     535.0172 0.0015196751 
         476    490.87805    740.24445    535.38413 0.0015194394 
       476.4    507.67399    740.24445    535.90703 0.0015196464 
       476.8    502.52701    740.24445    536.22693 0.0015192779 
       477.2    494.21639    740.24445     536.9024 0.0015199166 
       477.6    488.10347    740.24445    537.31987 0.0015198244 
         478    495.57367    740.24445    537.77071 0.0015198268 
       478.4    500.79779    740.24445    538.18062 0.0015197135 
       478.8     502.3214    740.24445    538.52889 0.0015194265 
       479.2    492.99447    740.24445    539.10963 0.0015197954 
       479.6    501.82267    740.24445    539.60603 0.0015199261 
         480    498.82345    740.24445    540.35762 0.0015207747 
       480.4    495.67987    740.24445    540.85968 0.0015209203 
       480.8     502.4637    740.24445    541.16207 0.0015205046 
       481.2    505.72083    740.24445    541.49041 0.0015201624 
       481.6    513.58483    740.24445    541.93538  0.001520148 
         482    498.85115    740.24445    542.38337  0.001520142 
       482.4    506.18435    740.24445    542.81003 0.0015200764 
       482.8     498.0734    740.24445    543.18461 0.0015198651 
       483.2    508.97731    740.24445    543.69784 0.0015200418 
       483.6    509.85745    740.24445    544.31502 0.0015205086 
         484    495.52627    740.24445    544.69454 0.0015203112 
       484.4    506.23697    740.24445    545.03865 0.0015200155 
       484.8     501.9493    740.24445    545.51007 0.0015200749 
       485.2    496.85176    740.24445     545.8123 0.0015196633 
       485.6    507.29631    740.24445    546.24392 0.0015196122 
         486    497.25081    740.24445    546.66338 0.0015195275 
       486.4    505.49565    740.24445    547.10525 0.0015195051 
       486.8    498.94217    740.24445    547.57327 0.0015195553 
       487.2    501.03446    740.24445    548.03682  0.001519593 
       487.6    495.40629    740.24445    548.51646 0.0015196753 
         488    500.28018    740.24445    549.10817 0.0015200677 
       488.4    495.19909    740.24445    549.48812 0.0015198737 
       488.8    507.03925    740.24445    549.94219 0.0015198848 
       489.2    508.80883    740.24445    550.40627 0.0015199236 
       489.6    514.72184    740.24445    550.86098 0.0015199365 
         490    492.86152    740.24445    551.30575 0.0015199219 
       490.4    497.73978    740.24445    551.82531 0.0015201134 
       490.8    503.13633    740.24445     552.2764 0.0015201161 
       491.2     508.4032    740.24445    552.76228 0.0015202145 
       491.6    512.54377    740.24445    553.24178 0.0015202952 
         492    506.31142    740.24445    553.54045 0.0015198793 
       492.4    501.70807    740.24445    554.14275 0.0015202971 
       492.8    489.37414    740.24445    554.73681 0.0015206915 
       493.2    497.85535    740.24445     555.2784 0.0015209416 
       493.6    499.55539    740.24445     555.8177 0.0015211851 
         494    506.04073    740.24445    556.31039 0.0015213007 
       494.4    501.39754    740.24445    556.76377 0.0015213087 
       494.8    500.37247    740.24445    557.20505 0.0015212836 
       495.2    508.62877    740.24445    557.64794  0.001521263 
       495.6    506.86338    740.24445    558.14551 0.0015213915 
         496     490.8034    740.24445    558.52627 0.0015212016 
       496.4    503.98213    740.24445    559.23937 0.0015219164 
       496.8    496.38756    740.24445    559.63434 0.0015217651 
       497.2    506.05384    740.24445     560.0898 0.0015217783 
       497.6    498.34344    740.24445    560.43571 0.0015214941 
         498    498.40412    740.24445    560.83671 0.0015213598 
       498.4    501.48072    740.24445    561.30577 0.0015214102 
       498.8     500.3079    740.24445    561.78975 0.0015215009 
       499.2    505.50943    740.24445    562.20561 0.0015214071 
       499.6    503.85178    740.24445    562.79826 0.0015217915 
         500    501.57406    740.24445    563.33643 0.0015220281 
Loop time of 1478 on 8 procs for 500000 steps with 2000 atoms

Performance: 29.229 ns/day, 0.821 hours/ns, 338.296 timesteps/s
94.9% CPU use with 8 MPI tasks x no OpenMP threads

MPI task timing breakdown:
Section |  min time  |  avg time  |  max time  |%varavg| %total
---------------------------------------------------------------
Pair    | 895.2      | 928.23     | 977.49     |  82.2 | 62.80
Neigh   | 0          | 0          | 0          |   0.0 |  0.00
Comm    | 399.6      | 450.45     | 483.16     | 124.1 | 30.48
Output  | 0.26831    | 0.34845    | 0.82979    |  30.8 |  0.02
Modify  | 14.479     | 14.842     | 15.372     |   6.9 |  1.00
Other   |            | 84.14      |            |       |  5.69

Nlocal:    250 ave 257 max 240 min
Histogram: 1 0 1 1 0 0 1 1 1 2
Nghost:    1066.5 ave 1076 max 1060 min
Histogram: 2 1 0 2 0 0 1 1 0 1
Neighs:    0 ave 0 max 0 min
Histogram: 8 0 0 0 0 0 0 0 0 0
FullNghs:  8698.5 ave 8956 max 8340 min
Histogram: 1 0 1 1 0 0 1 1 1 2

Total # of neighbors = 69588
Ave neighs/atom = 34.794
Neighbor list builds = 0
Dangerous builds = 0

print ${flux} file ${LOC2}/flux-5-10.dat
print 0.00152202810493668 file ${LOC2}/flux-5-10.dat
print 0.00152202810493668 file ../output/output-2//flux-5-10.dat
0.00152202810493668


####-------------------SOME INFO ON VARIOUS FIXES---------------------------


####write_data snap/data.${N_steps}
#####dump dump1 all custom ${snap_save} snap/snap.*.lammps id type x y z


##### CONSTRUCT A TEMPERATURE PROFILE
##### THESE BINS ARE NOT RELATED TO thermal/conductivity Bins
#####  bin/1d args = dim origin delta
#####    dim = x or y or z
#####    origin = lower or center or upper or coordinate value (distance units)
#####    delta = thickness of spatial bins in dim (distance units)



#####fix ID group-ID ave/chunk Nevery Nrepeat Nfreq chunkID value1 value2 ... keyword args ...
#####ID, group-ID are documented in fix command
#####ave/chunk = style name of this fix command
#####Nevery = use input values every this many timesteps
#####Nrepeat = # of times to use input values for calculating averages
#####Nfreq = calculate averages every this many timesteps
#####chunkID = ID of compute chunk/atom command
#####one or more input values can be listed
#####value = vx, vy, vz, fx, fy, fz, density/mass, density/number, temp, c_ID, c_ID[I], f_ID, f_ID[I], v_name

#####For example, if Nevery=2, Nrepeat=6, and Nfreq=100, then values on timesteps 90,92,94,96,98,100 will be used to compute the final aver
####age on timestep 100. Similarly for timesteps 190,192,194,196,198,200 on timestep 200, etc. If Nrepeat=1 and Nfreq = 100, then no time a
####veraging is done; values are simply generated on timesteps 100,200,etc.





#####fix ID group-ID thermal/conductivity N edim Nbin keyword value ...
#####ID, group-ID are documented in fix command
#####thermal/conductivity = style name of this fix command
#####N = perform kinetic energy exchange every N steps
#####edim = x or y or z = direction of kinetic energy transfer
#####Nbin = # of layers in edim direction (must be even number)
#####zero or more keyword/value pairs may be appended
#####keyword = swap
#####swap value = Nswap = number of swaps to perform every N steps


Total wall time: 0:25:22
