LAMMPS data file via write_data, version 30 Jul 2016, timestep = 10000

2000 atoms
1 atom types

-1.1037168687900270e+00 2.6103716868789967e+01 xlo xhi
-2.2074337375800539e+00 5.2207433737579933e+01 ylo yhi
-1.1037168687900270e+00 2.6103716868789967e+01 zlo zhi

Masses

1 28.0855

Atoms # atomic

2 1 1.5220295316857030e-01 -8.9142305540859168e-01 3.3223955327935117e-01 0 0 0
863 1 1.2411954258980204e+01 5.9747766653264573e+00 9.6827060009939601e+00 0 0 0
11 1 4.2906733877034169e+00 5.0430928766976213e-01 1.6447887958688097e+00 0 0 0
10 1 5.6759465907646174e+00 -8.3829096819741988e-01 3.1425960827867366e-01 0 0 0
18 1 1.1024853001168628e+01 -8.3200239950709742e-01 2.9453545291240840e-01 0 0 0
19 1 9.8067582219584821e+00 5.4085005408785602e-01 1.6562412429798017e+00 0 0 0
975 1 7.1924364188929655e+00 2.2326710753243130e+01 9.8980934941899328e+00 0 0 0
23 1 1.2357380927041897e+01 5.2067043921528133e-01 -1.0989279702030179e+00 0 0 0
45 1 1.5951553859150247e+00 3.0168234011787334e+00 1.8251622488608585e+00 0 0 0
8 1 2.9011950598594347e+00 1.8453639230497594e+00 2.4461420438949766e-01 0 0 0
53 1 7.0231025852190445e+00 3.1828097720379738e+00 1.6273175868698049e+00 0 0 0
16 1 8.4283357955596472e+00 1.9266881415022732e+00 1.9533984533403720e-01 0 0 0
42 1 3.9891147089960988e-01 4.3672588997187960e+00 3.0803439527529403e-01 0 0 0
613 1 7.1184483853916438e+00 2.4977519818223914e+01 6.8623460234035756e+00 0 0 0
43 1 -1.0920809879372453e+00 5.8565586069397870e+00 1.4972461531324543e+00 0 0 0
51 1 4.2484802985533578e+00 5.9944070595904417e+00 1.6468338090867209e+00 0 0 0
50 1 5.6037333517126413e+00 4.4617502824263795e+00 2.6394014233209651e-01 0 0 0
55 1 7.0856387835429375e+00 5.9415748044579200e+00 -1.0503267807020997e+00 0 0 0
58 1 1.1093246735012977e+01 4.5879844787822179e+00 2.5735105776398759e-01 0 0 0
59 1 9.7905896455432231e+00 5.9437870006460853e+00 1.7029095468496476e+00 0 0 0
85 1 1.7242823665417204e+00 8.5912163781208424e+00 1.5495363380602303e+00 0 0 0
48 1 2.8770437575560206e+00 7.2673491399604906e+00 2.0663750793975638e-01 0 0 0
56 1 8.4359153291317028e+00 7.4248135552634169e+00 3.3230935434307951e-01 0 0 0
93 1 7.0608260536351803e+00 8.6346312905874765e+00 1.6682812835661345e+00 0 0 0
82 1 3.3201599482932770e-01 9.8428098656431526e+00 2.6219223903795874e-01 0 0 0
976 1 8.5999107990163637e+00 2.3739015885924015e+01 1.1253780644311041e+01 0 0 0
87 1 1.6168477903191045e+00 1.1263852834081993e+01 -1.0212713652363732e+00 0 0 0
90 1 5.8084446682201438e+00 9.9607884573204348e+00 1.5851138418166050e-01 0 0 0
91 1 4.3717688882808403e+00 1.1297676457788448e+01 1.6240612514155703e+00 0 0 0
88 1 3.0004213201817724e+00 1.2619771766497003e+01 3.3651599819314382e-01 0 0 0
96 1 8.3896200842187145e+00 1.2652157615001729e+01 2.1921117237514939e-01 0 0 0
98 1 1.1006140915171917e+01 1.0087335103337688e+01 2.7426351180070840e-01 0 0 0
99 1 9.8086321553159657e+00 1.1413632567189733e+01 1.7226172553190948e+00 0 0 0
125 1 1.5637654231842744e+00 1.4064755643960524e+01 1.5162501535024027e+00 0 0 0
122 1 2.8851829561996789e-01 1.5551635781766782e+01 1.3997224296680985e-01 0 0 0
130 1 5.9111672686646326e+00 1.5486494613772873e+01 3.2870371582515573e-01 0 0 0
133 1 7.2235369798632547e+00 1.4064786182355355e+01 1.6846786097233191e+00 0 0 0
137 1 9.6405344676163480e+00 1.4104116228740891e+01 -1.0333388574340925e+00 0 0 0
138 1 1.1144289226118826e+01 1.5532640938415904e+01 2.0236631025453164e-01 0 0 0
968 1 2.8961124847091901e+00 2.3671264753766785e+01 1.1134690310469638e+01 0 0 0
605 1 1.6267883678064143e+00 2.4894806755981261e+01 6.9645687742946674e+00 0 0 0
131 1 4.4292019668423785e+00 1.6822945802808984e+01 1.5413602579780590e+00 0 0 0
128 1 2.9103422283701832e+00 1.8158953184254411e+01 3.4001203180045897e-01 0 0 0
136 1 8.3403853617357644e+00 1.8268558429582146e+01 3.0857832875271213e-01 0 0 0
139 1 9.7606611268194996e+00 1.6703168047060171e+01 1.4785448301215183e+00 0 0 0
803 1 -1.0336225126246212e+00 5.3376363487283962e-01 1.2482954080479361e+01 0 0 0
162 1 2.8368118372990725e-01 2.1045070888276456e+01 1.6573218238619600e-01 0 0 0
165 1 1.5074382751330317e+00 1.9628910293907460e+01 1.4776393542191777e+00 0 0 0
169 1 4.2375995897057077e+00 1.9515774856463864e+01 -9.5706970737635022e-01 0 0 0
170 1 5.7945023054219567e+00 2.0937608356809967e+01 2.1474942806153871e-01 0 0 0
173 1 7.0313202968879933e+00 1.9748062199447521e+01 1.7098694300176949e+00 0 0 0
178 1 1.1291738689576411e+01 2.0981363320376051e+01 2.4065644788571564e-01 0 0 0
181 1 1.2386432494492302e+01 1.9372400402886004e+01 1.4673839444047776e+00 0 0 0
177 1 9.8417321980671257e+00 1.9630965463127321e+01 -1.0221824453976045e+00 0 0 0
163 1 -1.0633340394430404e+00 2.2370522908682517e+01 1.5368262496525216e+00 0 0 0
167 1 1.6851034696855243e+00 2.2432105162561101e+01 -1.0971392353242362e+00 0 0 0
171 1 4.3636072456102610e+00 2.2327834307499327e+01 1.5788041068649630e+00 0 0 0
168 1 2.9749780420730891e+00 2.3680489604367320e+01 2.5054769044176839e-01 0 0 0
176 1 8.4535444496799705e+00 2.3716835877262948e+01 2.0802621101587493e-01 0 0 0
409 1 4.3504470959366603e+00 -2.2023382253114789e+00 4.3263948642744312e+00 0 0 0
179 1 9.8972084807363014e+00 2.2329836411125065e+01 1.4715181212009727e+00 0 0 0
401 1 -1.0394389445260686e+00 -2.2013163944044312e+00 4.4596832637530470e+00 0 0 0
407 1 1.6476604570212252e+00 5.3225923811178455e-01 4.4505751802445319e+00 0 0 0
402 1 3.1846606857502918e-01 -9.2689179651524778e-01 5.8198907106438265e+00 0 0 0
6 1 2.9727476497797003e+00 -8.9686303336614259e-01 3.0379741451396436e+00 0 0 0
14 1 8.3549044366787619e+00 -8.8663845617921377e-01 2.9392513673351366e+00 0 0 0
415 1 7.0970890449060171e+00 4.7089438102987191e-01 4.2684887998249526e+00 0 0 0
101 1 1.2425760850043337e+01 8.7348718176841373e+00 1.6175375273425505e+00 0 0 0
967 1 1.5968793291770123e+00 2.2208061935269914e+01 9.8049689402485214e+00 0 0 0
4 1 2.1889127376621720e-01 1.7456711223559136e+00 3.1873400632493167e+00 0 0 0
449 1 4.4154161710786832e+00 3.2424460699866660e+00 4.3579718273807746e+00 0 0 0
12 1 5.8292727489033620e+00 1.9010256062398678e+00 2.9496645045824295e+00 0 0 0
457 1 9.8972421863442097e+00 3.1657515135323129e+00 4.2856904831947480e+00 0 0 0
20 1 1.1273867773672739e+01 1.8231893029835637e+00 2.9882751080369032e+00 0 0 0
447 1 1.5063885813050384e+00 6.0361131609386423e+00 4.4658351572364756e+00 0 0 0
442 1 2.7506363647431165e-01 4.6221238089338623e+00 5.9106817494474280e+00 0 0 0
46 1 2.9101070295123392e+00 4.6023612441919184e+00 3.0718128910401661e+00 0 0 0
54 1 8.4214242589997443e+00 4.5613952773443485e+00 2.9488811123955934e+00 0 0 0
455 1 7.0680332240767418e+00 5.9515438086554040e+00 4.3390890247818206e+00 0 0 0
44 1 2.0768027981228263e-01 7.3230483175241075e+00 2.9115600013284531e+00 0 0 0
581 1 1.2260502374874388e+01 1.9438531070090036e+01 7.0045328474113360e+00 0 0 0
52 1 5.6828359373333015e+00 7.3557095072776990e+00 2.9996130770499874e+00 0 0 0
489 1 4.3354833947672544e+00 8.7199641773111303e+00 4.4000846127241928e+00 0 0 0
448 1 3.0134757971040624e+00 7.2899816349660167e+00 5.7132520496934589e+00 0 0 0
456 1 8.4522719171931371e+00 7.2407665311900535e+00 5.6628300324264718e+00 0 0 0
60 1 1.1105071695806100e+01 7.3794585466268678e+00 2.8839354660837691e+00 0 0 0
497 1 9.8685771592741620e+00 8.6752981468158392e+00 4.3216000775987577e+00 0 0 0
487 1 1.7161849041306170e+00 1.1286610582130182e+01 4.2262838928747231e+00 0 0 0
84 1 2.9095648339772989e-01 1.2689830487295957e+01 2.8761224532685317e+00 0 0 0
482 1 2.5017458916615254e-01 1.0020070393102468e+01 5.6094533151822885e+00 0 0 0
86 1 3.0041727918623091e+00 9.9341918801796574e+00 2.9413688398966156e+00 0 0 0
92 1 5.8280013776768742e+00 1.2766806969604252e+01 2.8168751390588875e+00 0 0 0
488 1 3.0415280442754424e+00 1.2885804559424431e+01 5.6561186106882859e+00 0 0 0
94 1 8.4166431049680774e+00 1.0085703290799565e+01 3.0143394031525865e+00 0 0 0
495 1 7.0139694945882862e+00 1.1415250074203808e+01 4.3942860597270865e+00 0 0 0
490 1 5.7081857066448709e+00 1.0069356500465398e+01 5.7564869505165168e+00 0 0 0
498 1 1.1040960145292493e+01 1.0067940134923157e+01 5.6942675529882232e+00 0 0 0
100 1 1.1216478980572695e+01 1.2777777385267587e+01 2.9677677406579392e+00 0 0 0
529 1 4.4312145838370975e+00 1.4174224287194942e+01 4.2019238411069768e+00 0 0 0
126 1 3.0247174297032395e+00 1.5461712081310283e+01 2.8648508012314671e+00 0 0 0
134 1 8.4232226983869243e+00 1.5466762929360666e+01 2.9764679085039241e+00 0 0 0
537 1 9.6861185146127937e+00 1.4092058324593904e+01 4.4269890992407781e+00 0 0 0
538 1 1.1003615773044304e+01 1.5356201095383037e+01 5.8167230401674184e+00 0 0 0
527 1 1.6199882194095345e+00 1.6854481685211610e+01 4.2323176557286226e+00 0 0 0
124 1 3.3701547501096918e-01 1.8200120200877262e+01 2.9209031516526016e+00 0 0 0
132 1 5.6329509273667275e+00 1.8256220297246607e+01 2.9602279367409108e+00 0 0 0
535 1 7.0307938383881154e+00 1.6776942428221965e+01 4.2986741384113403e+00 0 0 0
536 1 8.4246419057303630e+00 1.8004427089679943e+01 5.6015553430881209e+00 0 0 0
543 1 1.2422269480649506e+01 1.6672339286503728e+01 4.4258425672513724e+00 0 0 0
140 1 1.1181508394531917e+01 1.8019734857221000e+01 2.8874784922804517e+00 0 0 0
977 1 9.8143947344564051e+00 1.9433739108738564e+01 9.9011047106730725e+00 0 0 0
569 1 4.3016038497150078e+00 1.9690263686400019e+01 4.3073817397668117e+00 0 0 0
166 1 2.8952297042540414e+00 2.0964244198137354e+01 2.8822270230625744e+00 0 0 0
174 1 8.4991456332839359e+00 2.1008956686201245e+01 2.9895848224179677e+00 0 0 0
577 1 9.7838417519423082e+00 1.9361704214711072e+01 4.2548965086306163e+00 0 0 0
164 1 2.9196596974964478e-01 2.3679024873852832e+01 2.9434614806097148e+00 0 0 0
567 1 1.6509205933173530e+00 2.2325026881265249e+01 4.3612432216379124e+00 0 0 0
568 1 3.1019883082855690e+00 2.3582538405538276e+01 5.6394659233855391e+00 0 0 0
172 1 5.6437846574781414e+00 2.3713515484182505e+01 2.8617708005318834e+00 0 0 0
575 1 7.0943636820300338e+00 2.2368755028327787e+01 4.2132437936481288e+00 0 0 0
443 1 -1.0285228679489826e+00 6.1102966602943249e+00 7.2344654361055474e+00 0 0 0
180 1 1.1233504656904808e+01 2.3642691941331041e+01 2.9687379967563245e+00 0 0 0
978 1 1.1181557203442313e+01 2.0878368888440018e+01 1.1109710745573670e+01 0 0 0
421 1 1.2310233634683749e+01 -2.1807094525646962e+00 7.0568783619796491e+00 0 0 0
411 1 4.3738151047829179e+00 5.8224397845047748e-01 6.9012612053009059e+00 0 0 0
406 1 2.9588384783815416e+00 -8.1481206764368319e-01 8.2250173972954190e+00 0 0 0
410 1 5.7597032414291922e+00 -8.9590817007919887e-01 5.7156553317012779e+00 0 0 0
583 1 1.2483985148351175e+01 2.2219199422358439e+01 4.3064503424800753e+00 0 0 0
414 1 8.3199027100111600e+00 -8.8437556679801088e-01 8.4921992010220819e+00 0 0 0
418 1 1.1093975129747097e+01 -7.0974344191043848e-01 5.7196598144778195e+00 0 0 0
419 1 9.6655430554947550e+00 5.5837143904161357e-01 7.0583645572165334e+00 0 0 0
404 1 2.8407015393568191e-01 1.8336246775171938e+00 8.3720262277916078e+00 0 0 0
445 1 1.6575834750718725e+00 3.2681759608494727e+00 7.1062898194644397e+00 0 0 0
408 1 3.0520675147766432e+00 1.9070533266742855e+00 5.7149120742060155e+00 0 0 0
412 1 5.6239112997636003e+00 1.8269499488465160e+00 8.4393871822822781e+00 0 0 0
416 1 8.4039014449378673e+00 1.9117940085005032e+00 5.6017713896236652e+00 0 0 0
453 1 7.1253094285612155e+00 3.3016162050691582e+00 7.1140929231852388e+00 0 0 0
420 1 1.1173082097597772e+01 1.8944618381894691e+00 8.4160078696520682e+00 0 0 0
461 1 1.2467575140733084e+01 3.1961378407903971e+00 7.0723522692901293e+00 0 0 0
451 1 4.2736946639376576e+00 5.9647825852694787e+00 7.2401120164611861e+00 0 0 0
446 1 2.9776801907062649e+00 4.4934549528929866e+00 8.5156340677916393e+00 0 0 0
450 1 5.6430879100838318e+00 4.6980858171559072e+00 5.7456795835459706e+00 0 0 0
454 1 8.4387548102132452e+00 4.6200638189931738e+00 8.4695837311502142e+00 0 0 0
458 1 1.1051411287329914e+01 4.6191527730384294e+00 5.7833611275339187e+00 0 0 0
459 1 9.8111584278945596e+00 6.0336845236576808e+00 7.1517357151109291e+00 0 0 0
444 1 3.2464581109577967e-01 7.5003369138541132e+00 8.4750769767903993e+00 0 0 0
485 1 1.6644593885982462e+00 8.6969398434415943e+00 6.9344324829428698e+00 0 0 0
452 1 5.7916091719833886e+00 7.3147676984685512e+00 8.4452632077412719e+00 0 0 0
493 1 7.0757651121543992e+00 8.7125625333947951e+00 7.1448759090637948e+00 0 0 0
460 1 1.1156052254475696e+01 7.4380126012393939e+00 8.5045556175226853e+00 0 0 0
484 1 1.7429595547790974e-01 1.2695058033644552e+01 8.2132776533363234e+00 0 0 0
486 1 2.8950082868561484e+00 1.0043490011468794e+01 8.3126275730467647e+00 0 0 0
491 1 4.2933896138667684e+00 1.1456541881513603e+01 6.9667018647790950e+00 0 0 0
496 1 8.2657731338202698e+00 1.2778896108606036e+01 5.8037894539208477e+00 0 0 0
494 1 8.3805663384825948e+00 1.0139106941548686e+01 8.5776992421294693e+00 0 0 0
492 1 5.4775627887055478e+00 1.2748287654970246e+01 8.5496987650711365e+00 0 0 0
499 1 9.6684326123027571e+00 1.1314795926430284e+01 7.1010601808174210e+00 0 0 0
500 1 1.1124603882336357e+01 1.2721105947510248e+01 8.4540488412990822e+00 0 0 0
522 1 2.7297648699876753e-01 1.5495073118346642e+01 5.6915676952134673e+00 0 0 0
525 1 1.6131105619510557e+00 1.4118100650413105e+01 6.9713672644507980e+00 0 0 0
526 1 2.9243871176762184e+00 1.5336765164409403e+01 8.3541407803100345e+00 0 0 0
530 1 5.6337119618896558e+00 1.5447921608542444e+01 5.6640848070512284e+00 0 0 0
533 1 6.8650954068132517e+00 1.4161549698410237e+01 7.0840216133210534e+00 0 0 0
534 1 8.2463219749152348e+00 1.5353994696053160e+01 8.5074057015857818e+00 0 0 0
541 1 1.2369665115015996e+01 1.4165103106825045e+01 7.2095956477487366e+00 0 0 0
524 1 2.4287369919770113e-01 1.8091803572551520e+01 8.3266936000379665e+00 0 0 0
528 1 3.0533041180168077e+00 1.8174407630067424e+01 5.5328466671242964e+00 0 0 0
531 1 4.2234406045022084e+00 1.6828734978721400e+01 6.9374113349406077e+00 0 0 0
532 1 5.5127615868455653e+00 1.8287212420715218e+01 8.2933483894208297e+00 0 0 0
539 1 9.6091263132518296e+00 1.6734614208216126e+01 7.1989739990336652e+00 0 0 0
540 1 1.1094851788356911e+01 1.8101583795791921e+01 8.4688454029114624e+00 0 0 0
562 1 2.2247612379207077e-01 2.0909351421700595e+01 5.7944384452856248e+00 0 0 0
565 1 1.6549037356647014e+00 1.9448061334465553e+01 6.9944995969944284e+00 0 0 0
570 1 5.7270215206696058e+00 2.0968157934165642e+01 5.6901042024621722e+00 0 0 0
566 1 2.8640853636251187e+00 2.0909077740484037e+01 8.3977992170930094e+00 0 0 0
573 1 7.0826138463332562e+00 1.9562810936360790e+01 7.0498713816887344e+00 0 0 0
574 1 8.4442768574713565e+00 2.0896942043154667e+01 8.4721564346282712e+00 0 0 0
578 1 1.1064801476868501e+01 2.0779695046697110e+01 5.5553786224223307e+00 0 0 0
970 1 5.6364989900647728e+00 2.0854508438688637e+01 1.1138625834154933e+01 0 0 0
564 1 1.9845645852968627e-01 2.3595906029490305e+01 8.4512404381449606e+00 0 0 0
571 1 4.3507579063973676e+00 2.2229357540147578e+01 7.1354174488190187e+00 0 0 0
576 1 8.5391686074289677e+00 2.3658616908914002e+01 5.5567818139855722e+00 0 0 0
572 1 5.9191214386228372e+00 2.3702873293406640e+01 8.3184586081126444e+00 0 0 0
928 1 3.0875285199997333e+00 1.8158045336984106e+01 1.1154528624633935e+01 0 0 0
579 1 9.8218776016891702e+00 2.2142391549534015e+01 7.0157797710576348e+00 0 0 0
580 1 1.1106093457331333e+01 2.3615692324895210e+01 8.3549359362616187e+00 0 0 0
521 1 -1.0928503827083702e+00 1.4187893304858225e+01 4.2302601818930716e+00 0 0 0
802 1 3.2966568382504796e-01 -8.5844247092193249e-01 1.1174421848654831e+01 0 0 0
807 1 1.6509899602833074e+00 5.7642384254914947e-01 9.8136720225737051e+00 0 0 0
927 1 1.6263249399148514e+00 1.6773515036707014e+01 9.8192978294957118e+00 0 0 0
463 1 1.2409376515623169e+01 6.0997143307645247e+00 4.2670011061265303e+00 0 0 0
937 1 9.6371194912370850e+00 1.3992190148016732e+01 9.9000658636167778e+00 0 0 0
810 1 5.4988689708483287e+00 -9.7584509854129120e-01 1.1093396335620980e+01 0 0 0
815 1 7.0322540436504681e+00 4.3235848329953286e-01 9.8948602507142365e+00 0 0 0
817 1 9.7265913396164478e+00 -2.2064956231266137e+00 9.7890227212948435e+00 0 0 0
818 1 1.1003947070130064e+01 -7.6003028957055052e-01 1.1219303113538007e+01 0 0 0
823 1 1.2466561716899434e+01 5.5999486141372024e-01 9.9406580403598976e+00 0 0 0
841 1 -1.0736981139435176e+00 3.3803505776077110e+00 9.7276616711503454e+00 0 0 0
849 1 4.3903056124494189e+00 3.1416752688699656e+00 9.7883735486585479e+00 0 0 0
808 1 2.9863813649548230e+00 1.8437932959982339e+00 1.1266029919514414e+01 0 0 0
816 1 8.3104433928217745e+00 1.9016237026787266e+00 1.1283466002645895e+01 0 0 0
938 1 1.1194784755160795e+01 1.5411431196021399e+01 1.1002082365297642e+01 0 0 0
857 1 9.6769754895976092e+00 3.1483350491469686e+00 9.8793143966516439e+00 0 0 0
969 1 4.1906587565556253e+00 1.9592365479089075e+01 9.7307368041417739e+00 0 0 0
847 1 1.7008568820821781e+00 6.0854783669189860e+00 9.7584512024502583e+00 0 0 0
842 1 2.0491515120888049e-01 4.7493376602846391e+00 1.1118630101715096e+01 0 0 0
850 1 5.6415769205191753e+00 4.5394318856958398e+00 1.1120754094038322e+01 0 0 0
855 1 7.1394072888518965e+00 5.9703913132009570e+00 9.8871468821978947e+00 0 0 0
930 1 5.5452959121368073e+00 1.5603266579366268e+01 1.1192187009028059e+01 0 0 0
858 1 1.1152260168928716e+01 4.5199035726067729e+00 1.1170872963943433e+01 0 0 0
929 1 4.1430119358243118e+00 1.4234479290063605e+01 9.9341890787258471e+00 0 0 0
962 1 2.2888790998107489e-01 2.0956121700828110e+01 1.1187584712009389e+01 0 0 0
889 1 4.1795070574071200e+00 8.6935656949520919e+00 9.7185257703796157e+00 0 0 0
848 1 2.9287715621794272e+00 7.4447970687260039e+00 1.1367285325260108e+01 0 0 0
856 1 8.4666679764084289e+00 7.2767662274800262e+00 1.1292267106014192e+01 0 0 0
893 1 7.0197580712058185e+00 8.7127838483035713e+00 1.2443569327992616e+01 0 0 0
897 1 9.7498821255726593e+00 8.7200725945912936e+00 9.9612026618709990e+00 0 0 0
887 1 1.5847469298695007e+00 1.1359734679613293e+01 9.6859724287009019e+00 0 0 0
882 1 4.0583261600405596e-02 1.0032694697559858e+01 1.1061133346824713e+01 0 0 0
939 1 9.8059974928551252e+00 1.6882427444326606e+01 1.2439764039495889e+01 0 0 0
890 1 5.5461891122833986e+00 1.0011587987001782e+01 1.1083065099951668e+01 0 0 0
891 1 4.3005730895443621e+00 1.1415613372456392e+01 1.2448243263005860e+01 0 0 0
896 1 8.3359692687007652e+00 1.2694123347401250e+01 1.1174981535004848e+01 0 0 0
895 1 6.8813595281797451e+00 1.1402844843876119e+01 9.7854125750790626e+00 0 0 0
898 1 1.1244610841660991e+01 1.0016017427326304e+01 1.1290108850903350e+01 0 0 0
888 1 2.9315372130931641e+00 1.2786202146019139e+01 1.1069572714543215e+01 0 0 0
936 1 8.3665805416073038e+00 1.8252987845638160e+01 1.1145522533166201e+01 0 0 0
935 1 6.8487376096177321e+00 1.6864563744236541e+01 9.6765800685100238e+00 0 0 0
922 1 3.5588778127975929e-01 1.5301329307499278e+01 1.0997926185362397e+01 0 0 0
845 1 1.5312427482079816e+00 3.2911884237389972e+00 1.2335397022154641e+01 0 0 0
851 1 4.2554211434627440e+00 5.9385562611864291e+00 1.2496362932387397e+01 0 0 0
965 1 1.5813938132568852e+00 1.9643177540455003e+01 1.2490722746972446e+01 0 0 0
971 1 4.3131325254010111e+00 2.2389109095865656e+01 1.2487471276120733e+01 0 0 0
7 1 1.5383816927259493e+00 5.1385667676152735e-01 -1.0442786765769903e+00 0 0 0
49 1 4.3058062249100288e+00 3.1314875961846149e+00 -1.0936866384004560e+00 0 0 0
97 1 9.5875758753594109e+00 8.8864231300632088e+00 -1.0952430303178957e+00 0 0 0
161 1 -1.0966337053328403e+00 1.9519088996572005e+01 -1.0444310757487685e+00 0 0 0
129 1 4.2779372871322998e+00 1.4180719422602564e+01 -9.7534919174337276e-01 0 0 0
135 1 7.0576464272916981e+00 1.6910038393416649e+01 -1.0088131489106793e+00 0 0 0
981 1 1.2471171527354802e+01 1.9613459838644943e+01 1.2421087891545596e+01 0 0 0
1207 1 1.6116911984168303e+00 5.8498787137842290e-01 1.5171830856648155e+01 0 0 0
806 1 3.0643968624928521e+00 -7.6891338189186509e-01 1.3957245016552795e+01 0 0 0
1209 1 4.4477830120674824e+00 -2.1719874252863933e+00 1.5254353155845065e+01 0 0 0
814 1 8.4584571824955290e+00 -8.9539060914391744e-01 1.3968807319126867e+01 0 0 0
1215 1 7.1693843132676855e+00 4.3748803697377603e-01 1.5447556709229568e+01 0 0 0
819 1 9.6731122696239211e+00 4.5372315223089271e-01 1.2588055678260718e+01 0 0 0
1223 1 1.2336677552616612e+01 3.9075448065493118e-01 1.5366122545613173e+01 0 0 0
804 1 2.5664184823448777e-01 1.9012951901854176e+00 1.3776138562128814e+01 0 0 0
1817 1 9.7431401318466833e+00 2.4927768089941925e+01 2.0534228654993314e+01 0 0 0
1249 1 4.3409761813794185e+00 3.3041787687173128e+00 1.5244286344884408e+01 0 0 0
812 1 5.7105843456197061e+00 1.8081136724395916e+00 1.4063038817447712e+01 0 0 0
1257 1 9.7508711070380656e+00 3.2873538884239561e+00 1.5354584413767661e+01 0 0 0
820 1 1.1058140943434381e+01 1.8217519677136742e+00 1.3949390130657115e+01 0 0 0
1779 1 9.8659105000372307e+00 2.2219825093906096e+01 2.3266195102126300e+01 0 0 0
1247 1 1.5154795205084233e+00 5.9453064406484417e+00 1.5223531488406380e+01 0 0 0
846 1 2.8680232765410305e+00 4.6030106206012791e+00 1.3832375535996277e+01 0 0 0
813 1 7.0508889382405080e+00 -2.1155485527059739e+00 1.2503181141125152e+01 0 0 0
854 1 8.4407070958514829e+00 4.5418874730169865e+00 1.3852578978529648e+01 0 0 0
1255 1 7.0125472498986028e+00 5.9364808887443958e+00 1.5069723941177990e+01 0 0 0
1780 1 1.1251950064106456e+01 2.3619474617300302e+01 2.4697796629325197e+01 0 0 0
844 1 1.1644562511263062e-01 7.3767146217013844e+00 1.3803471488578483e+01 0 0 0
1289 1 4.3435600545637536e+00 8.7878200689345860e+00 1.5179109677032088e+01 0 0 0
852 1 5.6452521021050277e+00 7.3419540893484152e+00 1.3789240455579664e+01 0 0 0
860 1 1.1281196816537005e+01 7.3265150553740588e+00 1.3907489151328738e+01 0 0 0
1297 1 9.7649964028070571e+00 8.6702720577400036e+00 1.5171881498707318e+01 0 0 0
1287 1 1.6568025966056095e+00 1.1397559812293952e+01 1.5373621995647035e+01 0 0 0
884 1 3.2753274517304115e-01 1.2669285182639594e+01 1.3830011405128658e+01 0 0 0
886 1 2.9828195944518381e+00 1.0077981846625987e+01 1.3851009453367208e+01 0 0 0
892 1 5.7006306841554562e+00 1.2730047445970714e+01 1.3915640406824323e+01 0 0 0
1295 1 7.2165356691768006e+00 1.1495226926459239e+01 1.5284461067830531e+01 0 0 0
894 1 8.4210182704421506e+00 1.0092774125150260e+01 1.3763333843737636e+01 0 0 0
1813 1 6.9928205924029365e+00 2.4930696035326839e+01 2.3394140300007606e+01 0 0 0
900 1 1.1160784214314585e+01 1.2756876578915929e+01 1.3933738046531809e+01 0 0 0
1329 1 4.4375377027442600e+00 1.4070573189194414e+01 1.5397875107033883e+01 0 0 0
926 1 3.0853307887570232e+00 1.5471638385551742e+01 1.3971735208797451e+01 0 0 0
934 1 8.2893366058631948e+00 1.5484617487028189e+01 1.3810005410774796e+01 0 0 0
933 1 7.0788935112562044e+00 1.4200923264021402e+01 1.2538000580457277e+01 0 0 0
1337 1 9.9357170231903051e+00 1.4168197143562566e+01 1.5125133480439217e+01 0 0 0
1327 1 1.6681912461671939e+00 1.6776336496505468e+01 1.5350048590311168e+01 0 0 0
924 1 3.8926094856407911e-01 1.8171713119343988e+01 1.3814126179405358e+01 0 0 0
932 1 5.7349109451926612e+00 1.8398441285276942e+01 1.4009426918294066e+01 0 0 0
1335 1 7.1541782350750927e+00 1.6845785924578870e+01 1.5230481776476990e+01 0 0 0
940 1 1.1177783574998061e+01 1.8244150244866272e+01 1.3821722762008013e+01 0 0 0
1201 1 -1.0737567080703869e+00 -2.1699132524137710e+00 1.5115198614888744e+01 0 0 0
1369 1 4.1934236388037620e+00 1.9712223269002696e+01 1.5211660200931954e+01 0 0 0
966 1 2.9303162629335140e+00 2.0962820882306534e+01 1.3880832601619561e+01 0 0 0
974 1 8.4608426708204760e+00 2.0989473983949193e+01 1.3959277921951433e+01 0 0 0
1377 1 9.7435643946097574e+00 1.9550982933677204e+01 1.5226908967911895e+01 0 0 0
964 1 1.5577204021699040e-01 2.3697117827866958e+01 1.4070880032628084e+01 0 0 0
1367 1 1.5892399323940078e+00 2.2255861848897609e+01 1.5234991625112121e+01 0 0 0
972 1 5.8106798858597744e+00 2.3649282263677328e+01 1.3884041360934177e+01 0 0 0
1605 1 1.7569086490462515e+00 -2.0880784285775960e+00 2.3402072902979015e+01 0 0 0
1375 1 7.2383803030501683e+00 2.2369599770138322e+01 1.5321407488409347e+01 0 0 0
980 1 1.1187316113417610e+01 2.3785566411274836e+01 1.3821821082815839e+01 0 0 0
979 1 9.9537819879819107e+00 2.2223426627358844e+01 1.2586057064331351e+01 0 0 0
1202 1 3.2720290303338762e-01 -8.0987839898775027e-01 1.6422134419627106e+01 0 0 0
1205 1 1.6926668600591706e+00 -2.1647170102023359e+00 1.7844316738510337e+01 0 0 0
1203 1 -1.0768615797280241e+00 5.5975792882138253e-01 1.7882673396383684e+01 0 0 0
1211 1 4.5314881470049029e+00 4.9980391278911196e-01 1.7907146490261606e+01 0 0 0
1213 1 7.2849978742556489e+00 -2.2068242399225957e+00 1.8016089476385762e+01 0 0 0
1210 1 5.8243844099193725e+00 -9.7136631127954742e-01 1.6773268540586635e+01 0 0 0
1214 1 8.5127098028606447e+00 -7.9536414490099905e-01 1.9404056745119011e+01 0 0 0
1218 1 1.1085278632323956e+01 -1.0096521576277357e+00 1.6659864825466496e+01 0 0 0
1219 1 9.8341666133167891e+00 4.8307388738417956e-01 1.8017961931899727e+01 0 0 0
1245 1 1.7262843195561812e+00 3.2642798626536340e+00 1.8028248654711273e+01 0 0 0
1204 1 2.3527204961617507e-01 1.9130654445595081e+00 1.9394326063860966e+01 0 0 0
1208 1 3.0811956459922740e+00 1.8451451634153366e+00 1.6613769599542312e+01 0 0 0
1212 1 5.8026753054774680e+00 1.8323058318704399e+00 1.9293300185115267e+01 0 0 0
1253 1 7.0209230707302623e+00 3.3753033829745136e+00 1.7932382909902405e+01 0 0 0
1216 1 8.4197258509986295e+00 1.9424103906347310e+00 1.6760526269040572e+01 0 0 0
1220 1 1.1163784710676305e+01 1.8060984287056341e+00 1.9454865009792609e+01 0 0 0
1242 1 2.4991150643655985e-01 4.6422221270046444e+00 1.6726976477710249e+01 0 0 0
1771 1 4.1675710470726086e+00 2.2242060853559593e+01 2.3338221380116476e+01 0 0 0
1251 1 4.3834448397897416e+00 6.1019273550245030e+00 1.7772755472732886e+01 0 0 0
1250 1 5.7437520116615195e+00 4.6506673090241666e+00 1.6498289121848988e+01 0 0 0
1246 1 3.0613521649723392e+00 4.6600053234028476e+00 1.9347524618028853e+01 0 0 0
1254 1 8.3993399109301432e+00 4.6680882045246266e+00 1.9438302052865414e+01 0 0 0
1258 1 1.1075632154899726e+01 4.6801114277822773e+00 1.6574455692473673e+01 0 0 0
1259 1 9.7884523671117183e+00 6.0523580712025957e+00 1.8047891335885080e+01 0 0 0
1285 1 1.6610478391041712e+00 8.5609641768737212e+00 1.7847709776125175e+01 0 0 0
1248 1 3.0315135451478343e+00 7.3257218589636590e+00 1.6399560934795939e+01 0 0 0
1252 1 5.7028755517857075e+00 7.3738822337012184e+00 1.9272609466509273e+01 0 0 0
1256 1 8.4344691801322167e+00 7.2585784794028729e+00 1.6451539648776581e+01 0 0 0
1293 1 7.0895198230556877e+00 8.6420540757407256e+00 1.7818571837234007e+01 0 0 0
1301 1 1.2498636500329152e+01 8.7050997296554140e+00 1.7981603982013372e+01 0 0 0
1260 1 1.1152819801336618e+01 7.3296617311492644e+00 1.9359241839731148e+01 0 0 0
1772 1 5.5257033411298817e+00 2.3688619046497827e+01 2.4740616608922899e+01 0 0 0
1282 1 2.6714911068444769e-01 1.0015429420518480e+01 1.6631610249171597e+01 0 0 0
1284 1 1.9887364247440512e-01 1.2666272978217171e+01 1.9372812078420704e+01 0 0 0
1291 1 4.3769101351839197e+00 1.1262804638778622e+01 1.7834238531014332e+01 0 0 0
1290 1 5.8302026366735600e+00 9.9983527428411190e+00 1.6575253378219525e+01 0 0 0
1288 1 3.0343371768395606e+00 1.2778732012199130e+01 1.6721917071696243e+01 0 0 0
1296 1 8.5881709204151502e+00 1.2952963891882824e+01 1.6561404332583340e+01 0 0 0
1294 1 8.3782314339443484e+00 1.0220557235548334e+01 1.9221823529940501e+01 0 0 0
1299 1 9.8893098298209239e+00 1.1378802849101456e+01 1.7889692891832858e+01 0 0 0
1298 1 1.1193858667528264e+01 1.0003825033879101e+01 1.6439210019626746e+01 0 0 0
1325 1 1.5648058659111919e+00 1.4164553359798502e+01 1.8172614244819201e+01 0 0 0
1322 1 3.7495359557245012e-01 1.5562395700224110e+01 1.6848384052750191e+01 0 0 0
1326 1 2.9552574270843701e+00 1.5455767681997179e+01 1.9399705539832727e+01 0 0 0
1330 1 5.7561594284168711e+00 1.5511094784402374e+01 1.6609677714876948e+01 0 0 0
1333 1 7.2121281405150199e+00 1.4112677542150212e+01 1.7902992989970706e+01 0 0 0
1338 1 1.1082121343664696e+01 1.5670001733498903e+01 1.6450525319103249e+01 0 0 0
1300 1 1.1194605566656755e+01 1.2869493026019153e+01 1.9154549895887378e+01 0 0 0
1331 1 4.2496203522402034e+00 1.6783692791572371e+01 1.7813758145036672e+01 0 0 0
1328 1 2.9189551633474147e+00 1.8259748247424479e+01 1.6651251368390547e+01 0 0 0
1336 1 8.3996530832651715e+00 1.8254215115789229e+01 1.6614394671707576e+01 0 0 0
1339 1 9.7776544293855743e+00 1.7003873154582870e+01 1.7988265372943822e+01 0 0 0
1362 1 2.3483699091880586e-01 2.0862386801548450e+01 1.6616307502227258e+01 0 0 0
1365 1 1.5722731435860673e+00 1.9647909287365792e+01 1.7941969791559941e+01 0 0 0
1370 1 5.6767343566269188e+00 2.1068165740879536e+01 1.6526063559845301e+01 0 0 0
1373 1 6.9586460444488774e+00 1.9606425374948262e+01 1.7894183419800839e+01 0 0 0
1374 1 8.3337805747800981e+00 2.0892366137227242e+01 1.9300123056657078e+01 0 0 0
1378 1 1.1077287394922944e+01 2.0932558971994233e+01 1.6530685735999921e+01 0 0 0
1381 1 1.2445720013405602e+01 1.9504468692073790e+01 1.7843723539687996e+01 0 0 0
1741 1 1.2465440538557363e+01 1.4186130884549849e+01 2.3420278645991317e+01 0 0 0
1363 1 -1.0443523106241941e+00 2.2207769910064535e+01 1.7986016264078511e+01 0 0 0
1371 1 4.2241486127144592e+00 2.2444172380830310e+01 1.7895199253574393e+01 0 0 0
1368 1 3.0452129836501394e+00 2.3783323508990922e+01 1.6501606004261269e+01 0 0 0
1413 1 6.8998239120330060e+00 2.4972447436700431e+01 1.8099505145498117e+01 0 0 0
1376 1 8.5119935837490619e+00 2.3683943426424563e+01 1.6751713317293042e+01 0 0 0
1379 1 9.7861518242560077e+00 2.2241151555251623e+01 1.8087333651031148e+01 0 0 0
1380 1 1.1262740931023425e+01 2.3486195392273846e+01 1.9183857552515516e+01 0 0 0
1601 1 -9.6088962133313260e-01 -2.1257763049239329e+00 2.0791539015337904e+01 0 0 0
1602 1 3.3808260474552038e-01 -8.3905000607148128e-01 2.2136515764715003e+01 0 0 0
1607 1 1.6023856532070659e+00 4.4621874328204741e-01 2.0603325363326356e+01 0 0 0