LAMMPS data file via write_data, version 30 Jul 2016, timestep = 10000

5000 atoms
1 atom types

-1.1037168688014471e+00 2.6103716868801385e+01 xlo xhi
-5.5185843440072304e+00 1.3051858434400725e+02 ylo yhi
-1.1037168688014471e+00 2.6103716868801385e+01 zlo zhi

Masses

1 28.0855

Atoms # atomic

2 1 2.7739123429122098e-01 -4.1682846770406972e+00 2.9256477075642140e-01 0 0 0
3 1 2.6063050110256935e+01 -2.7048132942602323e+00 1.5402849241318994e+00 -1 0 0
7 1 1.6780221275349059e+00 -2.7852167491161102e+00 -9.5745387160234308e-01 0 0 0
11 1 4.3405397382724304e+00 -2.6393503637919133e+00 1.5375650702243526e+00 0 0 0
10 1 5.7351981300916677e+00 -4.1546653361917434e+00 3.2747895366231855e-01 0 0 0
15 1 6.9513708222547930e+00 -2.8215252623326270e+00 2.6055811848184746e+01 0 0 -1
19 1 9.7584866706044160e+00 -2.6979906872432911e+00 1.4167537784336310e+00 0 0 0
4157 1 2.3292165885795271e+01 1.0761416912378676e+01 2.3139750535723248e+01 0 0 0
18 1 1.1072896220483056e+01 -4.2626860185888544e+00 2.8530651873367174e-01 0 0 0
23 1 1.2404038320848162e+01 -2.8802263994136119e+00 2.6014183611577050e+01 0 0 -1
27 1 1.5060578964656093e+01 -2.5925378832149835e+00 1.5049186461770638e+00 0 0 0
26 1 1.6511297918133490e+01 -3.9867428469701900e+00 3.3396714853514553e-01 0 0 0
31 1 1.7905743799954543e+01 -2.6582106535738173e+00 -1.0591580656855606e+00 0 0 0
34 1 2.1977141326450322e+01 -4.0013505790988333e+00 2.1775328989755902e-01 0 0 0
35 1 2.0501353394542612e+01 -2.7045470967985752e+00 1.5932994976034534e+00 0 0 0
39 1 2.3403982121788911e+01 -2.7604042495144108e+00 2.6058348692139347e+01 0 0 -1
41 1 -8.1550312959971838e-01 -5.5793343138382960e-02 -1.0802852038228747e+00 0 0 0
45 1 1.5556822162569557e+00 -3.7530315037022755e-02 1.6786223567978196e+00 0 0 0
49 1 4.4303634012748292e+00 8.0989916893500991e-02 2.5995764146432009e+01 0 0 -1
8 1 3.0483796105770966e+00 -1.2857427685571754e+00 2.4992526916181540e-01 0 0 0
53 1 7.0437381971533171e+00 -7.6833672481679327e-02 1.5326908131678827e+00 0 0 0
50 1 5.6826512451812770e+00 1.3134848842518914e+00 2.2327398252288039e-01 0 0 0
16 1 8.4365407151391842e+00 -1.3979860889064319e+00 1.8222276461369424e-01 0 0 0
57 1 9.7217571029371737e+00 -2.3500002803387897e-02 2.6002145869653589e+01 0 0 -1
61 1 1.2326619032391964e+01 3.4315516713121504e-02 1.5266506488536773e+00 0 0 0
24 1 1.3704911485690749e+01 -1.3588417225915961e+00 5.5731670025894506e-02 0 0 0
58 1 1.0984548897049455e+01 1.4789301480098143e+00 9.3260425031043551e-02 0 0 0
66 1 1.6547786314341405e+01 1.2669512269828356e+00 1.7470102790551001e-01 0 0 0
65 1 1.5200885953768516e+01 -1.1131152495686338e-01 2.6019155552248126e+01 0 0 -1
69 1 1.7895850748619324e+01 -5.5539421260266009e-02 1.6279746476165817e+00 0 0 0
32 1 1.9150275950203969e+01 -1.3545767777130040e+00 2.4705841950044827e-01 0 0 0
73 1 2.0616955197740701e+01 -1.2147689458828195e-01 2.6017722836079152e+01 0 0 -1
77 1 2.3357018755971069e+01 -6.3381618437238052e-02 1.4769681603803941e+00 0 0 0
40 1 2.4804788981686833e+01 -1.3650518936410279e+00 8.7988002106377222e-02 0 0 0
42 1 2.3545716180775181e-01 1.4473443547237113e+00 3.7979216240420766e-01 0 0 0
47 1 1.5666693082956487e+00 2.8309171163228362e+00 -1.0756495020492365e+00 0 0 0
51 1 4.4125074049575206e+00 2.5680780961860870e+00 1.5698330586571703e+00 0 0 0
48 1 3.0917056078659484e+00 3.9961702565434907e+00 3.3439611685520104e-01 0 0 0
56 1 8.2902244462183514e+00 3.9785763957462006e+00 1.7776392725856763e-01 0 0 0
59 1 9.7260726349488014e+00 2.7727290942332203e+00 1.5740060793502431e+00 0 0 0
64 1 1.3787198859918673e+01 3.9750436610046287e+00 1.4231315142116768e-01 0 0 0
67 1 1.5242527592569703e+01 2.6841797845771644e+00 1.5752745555171332e+00 0 0 0
72 1 1.9452441367914673e+01 4.0133802652029305e+00 1.3851467077675894e-01 0 0 0
71 1 1.8048718134897978e+01 2.6062310853997266e+00 -1.0208101279143509e+00 0 0 0
74 1 2.2006171906635068e+01 1.2639949448430794e+00 1.4697974817964340e-01 0 0 0
75 1 2.0609159937372464e+01 2.5906410322939468e+00 1.5099546971497837e+00 0 0 0
43 1 2.5901025199165097e+01 2.6450183695933847e+00 1.6975923492110541e+00 -1 0 0
79 1 2.3246039601203602e+01 2.7167587714499652e+00 2.5990093433967616e+01 0 0 -1
80 1 2.4584937365889246e+01 3.9577682154498497e+00 2.3691944301041740e-01 0 0 0
82 1 2.5384207378968626e-01 6.9282094289596721e+00 2.4076137248925733e-01 0 0 0
85 1 1.5157602531714895e+00 5.3932716723269643e+00 1.5037659239975834e+00 0 0 0
87 1 1.5970396658800510e+00 8.0523961615418358e+00 2.6005641567798982e+01 0 0 -1
89 1 4.2837346990154384e+00 5.3649760092323655e+00 2.5995558810530046e+01 0 0 -1
91 1 4.4661040740761146e+00 8.0138186742459379e+00 1.6564929097393302e+00 0 0 0
90 1 5.7271575228996392e+00 6.5541576042289522e+00 1.6337894708708123e-01 0 0 0
93 1 7.0534853593760811e+00 5.3363267672587469e+00 1.6249331852725972e+00 0 0 0
98 1 1.1221909579345061e+01 6.6593885637987427e+00 1.8138745283875390e-01 0 0 0
101 1 1.2476038693007169e+01 5.2522377002333629e+00 1.6296872068127046e+00 0 0 0
106 1 1.6710460246760853e+01 6.5561552065938118e+00 2.7238359394216383e-01 0 0 0
105 1 1.5295481353697081e+01 5.2234913973909922e+00 2.6099915548759149e+01 0 0 -1
109 1 1.8045005649744102e+01 5.1433666945375176e+00 1.6151580363064597e+00 0 0 0
114 1 2.2026150411718465e+01 6.8385525213323941e+00 2.8584343811243285e-01 0 0 0
115 1 2.0604082152392390e+01 8.0892567300146325e+00 1.6491575653790207e+00 0 0 0
113 1 2.0705106214166364e+01 5.4942101867818103e+00 2.6009736129454623e+01 0 0 -1
117 1 2.3302044215514996e+01 5.3063181312892560e+00 1.7278249150438678e+00 0 0 0
81 1 2.5917015795401223e+01 5.5565173040142382e+00 -9.3552004842491865e-01 -1 0 0
125 1 1.4208369966699794e+00 1.0730205566693938e+01 1.4510398834815732e+00 0 0 0
88 1 2.9985826796531687e+00 9.4409582578630449e+00 2.3022270723294169e-01 0 0 0
129 1 4.4032695280312906e+00 1.0767722865490128e+01 -1.0435481775408670e+00 0 0 0
133 1 7.1672061804222666e+00 1.0779358384392138e+01 1.5440626410043912e+00 0 0 0
99 1 9.9303619380559827e+00 8.1624132065116424e+00 1.6018526434798135e+00 0 0 0
96 1 8.4848408727859361e+00 9.4355314796650127e+00 2.9183959945474158e-01 0 0 0
137 1 9.8875287385369521e+00 1.0755971656036053e+01 -9.7180249386032946e-01 0 0 0
103 1 1.2655499997281327e+01 8.0164464630462291e+00 -1.0536389344733157e+00 0 0 0
141 1 1.2554421701944126e+01 1.0893256757657980e+01 1.5635614073235526e+00 0 0 0
104 1 1.3914219499996012e+01 9.3842821017567140e+00 3.1059144101024688e-01 0 0 0
107 1 1.5228006603146394e+01 7.7983914290287863e+00 1.6274514927862467e+00 0 0 0
145 1 1.5336287227242019e+01 1.0771310842960586e+01 -1.0361909186138465e+00 0 0 0
149 1 1.7872787191248801e+01 1.0758722635654362e+01 1.5558806340596714e+00 0 0 0
112 1 1.9430382540881475e+01 9.4682714787856010e+00 1.8333147407311359e-01 0 0 0
83 1 2.5929668447303982e+01 8.1805118600303821e+00 1.6160710650540695e+00 -1 0 0
157 1 2.3388638590115285e+01 1.0900605622938100e+01 1.5233562932415297e+00 0 0 0
120 1 2.4712761951187272e+01 9.5461985005857510e+00 1.2363473259135475e-01 0 0 0
121 1 2.6028624064154506e+01 1.0784782404554885e+01 2.5849490653803944e+01 -1 0 -1
1007 1 1.4995159041524393e+00 -2.7852960356734044e+00 4.3041685143326056e+00 0 0 0
6 1 2.9739660088836595e+00 -4.0120674786206720e+00 2.9269652292644777e+00 0 0 0
1015 1 6.9716308252760228e+00 -2.7914843220777277e+00 4.3451249269328507e+00 0 0 0
14 1 8.4469538275057694e+00 -4.0532966670450081e+00 2.8955864807143992e+00 0 0 0
1017 1 9.7801821014395678e+00 -5.4944096157858002e+00 4.2952100870210899e+00 0 0 0
1023 1 1.2383477031303254e+01 -2.6920607798416167e+00 4.3565790157671254e+00 0 0 0
22 1 1.3715489837976728e+01 -4.0015477926657734e+00 2.9620697646564991e+00 0 0 0
1031 1 1.7910982873681014e+01 -2.7293112598537848e+00 4.4347129115801076e+00 0 0 0
30 1 1.9244877181278859e+01 -4.0322509605298507e+00 3.0347545275661130e+00 0 0 0
1033 1 2.0690654758256571e+01 -5.3378147967279830e+00 4.4158863206910857e+00 0 0 0
38 1 2.4646943976847371e+01 -4.0222389743947442e+00 2.9695784618468055e+00 0 0 0
1039 1 2.3434807816569016e+01 -2.5938168428482933e+00 4.3135819827084134e+00 0 0 0
4 1 2.4573476974880967e-01 -1.3047814356168910e+00 2.9316736590094328e+00 0 0 0
1049 1 4.3992730195021439e+00 -6.5528752127465673e-02 4.3904040546588057e+00 0 0 0
12 1 5.7053765428425214e+00 -1.3885672690405304e+00 2.9877341164342548e+00 0 0 0
1057 1 9.6274819586737088e+00 -8.7604860406420793e-02 4.2577624331294963e+00 0 0 0
54 1 8.3960646386733195e+00 1.2784886320232922e+00 2.9534279752847992e+00 0 0 0
20 1 1.1042057516838142e+01 -1.3546686157232146e+00 2.8141300942691618e+00 0 0 0
1065 1 1.5044788309878918e+01 -9.1498043600377527e-02 4.3643698176671686e+00 0 0 0
28 1 1.6522779999369721e+01 -1.3174246483063181e+00 3.0313485941132887e+00 0 0 0
1073 1 2.0634854658532337e+01 -6.0311931913366292e-02 4.2719971027994026e+00 0 0 0
36 1 2.2036919509072778e+01 -1.3804566127279392e+00 2.7632116255425472e+00 0 0 0
1041 1 2.6077328832230982e+01 9.6236562630332950e-02 4.2067929453246133e+00 -1 0 0
78 1 2.4437977282880130e+01 1.2896517130270795e+00 2.8895349831680224e+00 0 0 0
44 1 2.4154214910599442e-01 3.9322562968338541e+00 2.7986862441820941e+00 0 0 0
1047 1 1.6527025926198078e+00 2.6639706599514432e+00 4.3893253555949547e+00 0 0 0
46 1 3.0526235235625179e+00 1.3729577242761994e+00 2.9818488392486246e+00 0 0 0
52 1 5.6978353847562779e+00 3.9197512144519022e+00 2.9681197272338644e+00 0 0 0
1055 1 7.1030553835006653e+00 2.5948224601161485e+00 4.3394649060342338e+00 0 0 0
60 1 1.1049160654488375e+01 4.0827526025521497e+00 2.9300551998600288e+00 0 0 0
1063 1 1.2460955137347069e+01 2.6027820905670684e+00 4.0783884244298765e+00 0 0 0
62 1 1.3889184313189773e+01 1.2283727453257789e+00 2.7450113826666560e+00 0 0 0
68 1 1.6509771178565991e+01 4.0508649432694330e+00 3.0568543444304774e+00 0 0 0
70 1 1.9174886227629397e+01 1.2829633469750032e+00 2.9831085666982222e+00 0 0 0
1071 1 1.7789846826738426e+01 2.6720739267557585e+00 4.2922968186671104e+00 0 0 0
76 1 2.1861419431417072e+01 3.9577313329237400e+00 2.9039579854217163e+00 0 0 0
1079 1 2.3231736277163229e+01 2.6722227449464264e+00 4.4139902065002419e+00 0 0 0
1087 1 1.5015415625630506e+00 8.1610217543426593e+00 4.3281223335951662e+00 0 0 0
1089 1 4.3094236682745866e+00 5.2437593136185914e+00 4.2395582808001100e+00 0 0 0
86 1 2.9410220484570559e+00 6.6430116277832587e+00 2.9508210676418951e+00 0 0 0
94 1 8.4901703466550185e+00 6.7765461431806528e+00 2.9580694400654597e+00 0 0 0
1097 1 9.8045559716113750e+00 5.4249588410969221e+00 4.3286543497513481e+00 0 0 0
102 1 1.3773244338867176e+01 6.5734567624634179e+00 3.0017190738725548e+00 0 0 0
1103 1 1.2484680423142036e+01 8.0750045328438116e+00 4.3212840483468034e+00 0 0 0
1105 1 1.5171252609142574e+01 5.4425828494787680e+00 4.4982450215318828e+00 0 0 0
110 1 1.9213888108643715e+01 6.7039338216884916e+00 3.0439829055215855e+00 0 0 0
1113 1 2.0669042815522403e+01 5.3390991921664259e+00 4.3825619320185849e+00 0 0 0
1081 1 -1.0005216202381249e+00 5.3034455682948858e+00 4.3764543985316902e+00 0 0 0
118 1 2.4836589304437371e+01 6.6202924248917210e+00 3.0180641278603000e+00 0 0 0
1119 1 2.3530191067498347e+01 8.0938166410061303e+00 4.3569970428893017e+00 0 0 0
84 1 9.6529485318347180e-02 9.4522661226597560e+00 3.0197982006031716e+00 0 0 0
1129 1 4.3784260325758160e+00 1.0684912529818288e+01 4.2116577921172125e+00 0 0 0
1095 1 7.1307067676729936e+00 8.0245553897643997e+00 4.3773373968487919e+00 0 0 0
92 1 5.9286101954076784e+00 9.4107727858517709e+00 2.9160429316818193e+00 0 0 0
1137 1 9.8506882976003585e+00 1.0730879298679458e+01 4.4279314999140311e+00 0 0 0
100 1 1.1209607817975934e+01 9.5572369100214125e+00 2.9586170003087990e+00 0 0 0
1145 1 1.5247648778991273e+01 1.0691137269857373e+01 4.3738364756535555e+00 0 0 0
108 1 1.6390441048144215e+01 9.3772521905193091e+00 2.8411315320248725e+00 0 0 0
1111 1 1.7818866744053409e+01 8.0762413288225119e+00 4.2504473327824632e+00 0 0 0
1153 1 2.0694999418177186e+01 1.0713211208757205e+01 4.3044097280502500e+00 0 0 0
116 1 2.2115240260338670e+01 9.4037351962956954e+00 2.8845282668825685e+00 0 0 0
1121 1 -1.0069652247806893e+00 1.0854039777597853e+01 4.4706357820066005e+00 0 0 0
1002 1 2.1532110016091596e-01 -4.2214038092269588e+00 5.7318927154151691e+00 0 0 0
1011 1 4.2433517793263933e+00 -2.8644037693313038e+00 7.0159212934861905e+00 0 0 0
1010 1 5.6852122165954340e+00 -4.1431728587785353e+00 5.6513572988827052e+00 0 0 0
1013 1 7.0285330355617086e+00 -5.4343050512539151e+00 7.1442905311734162e+00 0 0 0
1019 1 9.8178398227216714e+00 -2.8490796051182121e+00 6.9734471691672111e+00 0 0 0
1018 1 1.1178414753755751e+01 -4.2064792864088592e+00 5.6945513049845857e+00 0 0 0
4116 1 2.2039423654061910e+01 9.3736061057535309e+00 2.4615912903572390e+01 0 0 0
1027 1 1.5220969873352283e+01 -2.7171916064996386e+00 6.9319594493958681e+00 0 0 0
1026 1 1.6605529248884014e+01 -4.0894446792962995e+00 5.7073278949909509e+00 0 0 0
1034 1 2.2119674383666066e+01 -3.9378311018693957e+00 5.7081159587050028e+00 0 0 0
1035 1 2.0693360806651718e+01 -2.6895475765918162e+00 7.1929166721416333e+00 0 0 0
1003 1 2.6063288655929902e+01 -2.8371509305965397e+00 7.0033803210033607e+00 -1 0 0
1045 1 1.6000998504237471e+00 9.7299772037975782e-02 7.0060253361094622e+00 0 0 0
1042 1 1.9875561738206726e-01 1.3813977079763085e+00 5.6688689446415559e+00 0 0 0
1008 1 2.9560456804353286e+00 -1.4198902211442790e+00 5.6610182443272352e+00 0 0 0
1053 1 7.2294282332817055e+00 -1.6187656762869407e-01 7.0265691774085761e+00 0 0 0
1016 1 8.4954474341364303e+00 -1.5280363927573108e+00 5.6205376362507824e+00 0 0 0
1061 1 1.2327930259649799e+01 -1.0219971428908355e-01 7.0917808742628674e+00 0 0 0
1024 1 1.3760092262521539e+01 -1.4012481511477231e+00 5.7427541387241936e+00 0 0 0
1058 1 1.1097346060364407e+01 1.2897308150839624e+00 5.5451589787348627e+00 0 0 0
1069 1 1.7993297448737199e+01 -8.8000314011172087e-02 6.8955635074796664e+00 0 0 0
1032 1 1.9355094666654889e+01 -1.5774261175188329e+00 5.6252345284239578e+00 0 0 0
1074 1 2.1965780130479139e+01 1.2320820822239713e+00 5.7938216879698778e+00 0 0 0
1077 1 2.3455139931798755e+01 -1.2717388636657836e-01 7.0028464034472835e+00 0 0 0
1040 1 2.4911316119069394e+01 -1.3830369523452297e+00 5.6973235356042720e+00 0 0 0
1051 1 4.3657157382446181e+00 2.6530925881945708e+00 6.9474348136906734e+00 0 0 0
1048 1 2.9395644926122197e+00 4.0558584828275368e+00 5.7796193744585187e+00 0 0 0
1050 1 5.8438369743768384e+00 1.1866172777888524e+00 5.6996614228518450e+00 0 0 0
1056 1 8.4206889514849070e+00 3.9652305545474502e+00 5.5559637389681811e+00 0 0 0
1059 1 9.7383267712334494e+00 2.5456781929476291e+00 6.9566182386858113e+00 0 0 0
1064 1 1.3790223489073618e+01 3.9261360588870615e+00 5.6668351804171193e+00 0 0 0
1066 1 1.6568283221639646e+01 1.2529656534492062e+00 5.6780873329401018e+00 0 0 0
1067 1 1.5022514842171047e+01 2.5287707945611246e+00 7.0805455766393370e+00 0 0 0
1072 1 1.9230309983683782e+01 3.9967934162865051e+00 5.7452237892435187e+00 0 0 0
1075 1 2.0601761934180484e+01 2.6942528542014772e+00 7.0981887717990748e+00 0 0 0
1043 1 2.5960431899303231e+01 2.6255147470123399e+00 6.9775858800416470e+00 -1 0 0
1080 1 2.4733866048732239e+01 3.9633741902353474e+00 5.6204272383215148e+00 0 0 0
1082 1 1.8410704979923925e-01 6.7622854531345409e+00 5.6994361486615519e+00 0 0 0
1085 1 1.5247131766620365e+00 5.5355739640773036e+00 7.1489973624987959e+00 0 0 0
1091 1 4.4396197010479650e+00 8.1461459565705763e+00 6.9441862689337777e+00 0 0 0
1090 1 5.7481109360006304e+00 6.5299562992987168e+00 5.5846619792859400e+00 0 0 0
1093 1 6.9821347257857909e+00 5.2683776310897477e+00 7.0785994226891864e+00 0 0 0
1099 1 9.8055123351797455e+00 8.0539138035297899e+00 7.2451307121058734e+00 0 0 0
1098 1 1.1134149030640364e+01 6.7604484344332088e+00 5.7192313993342081e+00 0 0 0
1101 1 1.2450751885809197e+01 5.3522981209865108e+00 7.0421095242452045e+00 0 0 0
1106 1 1.6537575177492297e+01 6.7848782067399407e+00 5.7883252665177132e+00 0 0 0
1109 1 1.7805667608208754e+01 5.3478080952479106e+00 7.0787351056114423e+00 0 0 0
1114 1 2.2090470504938146e+01 6.6894461663999607e+00 5.5784145546289761e+00 0 0 0
1117 1 2.3490284386020978e+01 5.4057859577753957e+00 7.0256668885608011e+00 0 0 0
1083 1 -1.0153733181401066e+00 8.1335051475344358e+00 7.0942916880548381e+00 0 0 0
1125 1 1.7380083609664616e+00 1.0830765794547951e+01 6.9438651019049829e+00 0 0 0
1088 1 2.9772968215283795e+00 9.4202295622585126e+00 5.5766191271727656e+00 0 0 0
1133 1 7.0185651952768149e+00 1.0717520695638399e+01 7.0039905596461312e+00 0 0 0
1096 1 8.4631797435816978e+00 9.4042076425321746e+00 5.7934211551907220e+00 0 0 0
1141 1 1.2441825899143096e+01 1.0841028177341595e+01 7.2054770058402511e+00 0 0 0
1104 1 1.3935880933162592e+01 9.5118866076932900e+00 5.7385977340926155e+00 0 0 0
1107 1 1.5343423902339147e+01 8.2489247459168347e+00 7.1299001021095005e+00 0 0 0
1149 1 1.7966733206512508e+01 1.0799854383122423e+01 7.0903459164665934e+00 0 0 0
1112 1 1.9271026436970860e+01 9.3366278085639181e+00 5.7001064706851885e+00 0 0 0
1115 1 2.0722390491293293e+01 8.1103024214538255e+00 6.9398673376448095e+00 0 0 0
1157 1 2.3414607193187717e+01 1.0766768873072428e+01 7.1530887423734582e+00 0 0 0
1120 1 2.4832558816271291e+01 9.4797665247337068e+00 5.7596421634615025e+00 0 0 0
2007 1 1.5800328289084371e+00 -2.7103402024021110e+00 9.8689894549717341e+00 0 0 0
1006 1 2.8018636387864828e+00 -4.1945844657844251e+00 8.4256624620687646e+00 0 0 0
2015 1 7.0291708811253137e+00 -2.8860818721821362e+00 9.7754339209654528e+00 0 0 0
1014 1 8.5112710245378587e+00 -4.1624178657438335e+00 8.5102557730495842e+00 0 0 0
2017 1 9.8145659395088050e+00 -5.5117609944157291e+00 9.9563335371551211e+00 0 0 0
1022 1 1.3770625689533835e+01 -3.9380154681595112e+00 8.3592294736359918e+00 0 0 0
2023 1 1.2466253514617033e+01 -2.7522515739406952e+00 9.7158238249848790e+00 0 0 0
2025 1 1.5054871568046851e+01 -5.3385556327626755e+00 9.6168295328289570e+00 0 0 0
1030 1 1.9268961574781049e+01 -4.0490083004904971e+00 8.4150364242316016e+00 0 0 0
2031 1 1.7691697855611416e+01 -2.8536101660478228e+00 9.7164347348338147e+00 0 0 0
1038 1 2.4640607437301799e+01 -4.0455408997859781e+00 8.5144607754518074e+00 0 0 0
2039 1 2.3358355241579218e+01 -2.8013834093591679e+00 9.8584322127603290e+00 0 0 0
1004 1 3.0602723509073548e-01 -1.3320088696486512e+00 8.3191730131875623e+00 0 0 0
2041 1 2.6067983025916384e+01 -2.0311156755402060e-01 9.6746619147834654e+00 -1 0 0
2049 1 4.3674539298663566e+00 -5.9338915396612957e-02 9.8230056272597039e+00 0 0 0
1012 1 5.8383529279119051e+00 -1.5250406043937161e+00 8.4054696632552908e+00 0 0 0
2057 1 9.8199332185242927e+00 -1.3838372450155179e-01 9.8250509468946401e+00 0 0 0
1020 1 1.1111879211508390e+01 -1.5542318463423683e+00 8.4207784219323703e+00 0 0 0
1028 1 1.6464928854811607e+01 -1.3097114891614836e+00 8.3067563572180507e+00 0 0 0
2065 1 1.5152086169954098e+01 -1.2644736885415103e-01 9.8097470118174463e+00 0 0 0
1036 1 2.2067296785539408e+01 -1.4137048959166971e+00 8.4591146124177303e+00 0 0 0
2073 1 2.0727336709849563e+01 -4.1163740342548775e-04 9.7404677077022619e+00 0 0 0
1044 1 1.5728618670439734e-01 4.0494905769894007e+00 8.2497893843469452e+00 0 0 0
2047 1 1.5679743546465519e+00 2.7138129048281732e+00 9.8225831546281626e+00 0 0 0
1046 1 2.9451206727924677e+00 1.4247771629837003e+00 8.5015757848302940e+00 0 0 0
1052 1 5.6721776114861910e+00 3.9100223787981236e+00 8.3820752895431383e+00 0 0 0
2055 1 7.2311360476831545e+00 2.6820898042356434e+00 9.8091850997756573e+00 0 0 0
1054 1 8.4923195986677200e+00 1.2407209521306561e+00 8.3740137236162884e+00 0 0 0
1062 1 1.3757909701801227e+01 1.2801543982540911e+00 8.5619729293254458e+00 0 0 0
1060 1 1.1031030090992031e+01 3.9273855066620347e+00 8.3211663887197602e+00 0 0 0
2063 1 1.2385609885305035e+01 2.6847574517045123e+00 9.8303503597190414e+00 0 0 0
1068 1 1.6421273185622162e+01 3.9809558025669363e+00 8.3736663988581572e+00 0 0 0
1070 1 1.9266838595961431e+01 1.3712643955333419e+00 8.4421980452022716e+00 0 0 0
2071 1 1.7900524849458510e+01 2.6556026509667978e+00 9.7268518454877295e+00 0 0 0
1076 1 2.2064677852949906e+01 4.0147946576354476e+00 8.2847318930931841e+00 0 0 0
1078 1 2.4728369557084552e+01 1.2696451138061826e+00 8.4759161342010358e+00 0 0 0
2079 1 2.3368724814875993e+01 2.7218579066027657e+00 9.7226583736669561e+00 0 0 0
2081 1 2.6053080337106827e+01 5.4500419929295019e+00 9.7279165002032357e+00 -1 0 0
1086 1 3.0870569781178041e+00 6.8515098664593150e+00 8.3339253999295586e+00 0 0 0
2089 1 4.3241736696699045e+00 5.3988642217244811e+00 9.6880171278215794e+00 0 0 0
1094 1 8.3343735125634151e+00 6.7100417614798600e+00 8.3529984011195868e+00 0 0 0
2097 1 9.8089740411492699e+00 5.3167795416986463e+00 9.7280213250463259e+00 0 0 0
1102 1 1.3958741711644940e+01 6.8106240421946493e+00 8.3941278491863009e+00 0 0 0
2105 1 1.5274368645253638e+01 5.4004752082300573e+00 9.7664922487310601e+00 0 0 0
1110 1 1.9421067496388552e+01 6.6930299065637966e+00 8.3067705668260174e+00 0 0 0
2111 1 1.7961770144712556e+01 8.0609049972457676e+00 9.7288091512212684e+00 0 0 0
2113 1 2.0702932803906180e+01 5.2817275284479610e+00 9.6615326115855389e+00 0 0 0
1118 1 2.4808267400401480e+01 6.8551408686474318e+00 8.3476923366425186e+00 0 0 0
2119 1 2.3419163213330407e+01 8.1169536319344289e+00 9.7350703521222748e+00 0 0 0
2087 1 1.6393244498720256e+00 8.1272018409656628e+00 9.6893602101488749e+00 0 0 0
1084 1 3.4657050038620996e-01 9.5510815319212643e+00 8.3550708253740602e+00 0 0 0
2129 1 4.3566727099754923e+00 1.0801881817141616e+01 9.7373458661439329e+00 0 0 0
2095 1 7.1045282775542544e+00 8.0307601517953096e+00 9.7849012750059501e+00 0 0 0
1092 1 5.7453848563237537e+00 9.4194447763588283e+00 8.4606576256097643e+00 0 0 0
2137 1 9.7441507113753651e+00 1.0700477051651921e+01 9.7584677011066319e+00 0 0 0
2103 1 1.2494206286315769e+01 8.0161663134028220e+00 9.7181801655966140e+00 0 0 0
1100 1 1.1140331494974845e+01 9.3886863318671772e+00 8.5286525130381960e+00 0 0 0
1108 1 1.6651130781423941e+01 9.4665434080982891e+00 8.5072994285234653e+00 0 0 0
2145 1 1.5174608705105442e+01 1.0982269568607615e+01 9.8438386983216493e+00 0 0 0
1116 1 2.1955390894504834e+01 9.4963605547915542e+00 8.3978009437060450e+00 0 0 0
2153 1 2.0647208460285025e+01 1.0901043000179479e+01 9.6693412442433608e+00 0 0 0
2121 1 -9.7276922876141114e-01 1.0818798056675595e+01 9.8139318297312084e+00 0 0 0
2002 1 2.7601014007800956e-01 -4.0600813342959388e+00 1.1285550012556444e+01 0 0 0
153 1 2.0586850376373476e+01 1.0817525751611292e+01 2.5968091865972813e+01 0 0 -1
2003 1 -1.0370142414317107e+00 -2.6315485822067344e+00 1.2484744172019617e+01 0 0 0
2011 1 4.2985895782269008e+00 -2.8011010208445448e+00 1.2485052624270908e+01 0 0 0
2006 1 2.9032609311286457e+00 -4.2205416636485698e+00 1.3933833433758139e+01 0 0 0
2010 1 5.6139341228199431e+00 -4.2119430131233289e+00 1.1285583232936824e+01 0 0 0
2014 1 8.3191057910398705e+00 -4.2577986004319452e+00 1.4018615733684658e+01 0 0 0
2019 1 9.6793363866266127e+00 -2.8485674634645393e+00 1.2592021885468146e+01 0 0 0
2018 1 1.1243381295310474e+01 -4.0423857031006474e+00 1.1195467213686690e+01 0 0 0
2022 1 1.3783038472974882e+01 -4.1822936514511175e+00 1.4051147190845791e+01 0 0 0
2026 1 1.6430653304177881e+01 -4.2253788387160514e+00 1.1021967471223808e+01 0 0 0
2027 1 1.5023944690938352e+01 -2.9155987544376800e+00 1.2436309829937541e+01 0 0 0
2034 1 2.2032167255621889e+01 -4.1276568543256769e+00 1.1249327904617905e+01 0 0 0
2035 1 2.0578468359034925e+01 -2.8494866186805634e+00 1.2504514192682374e+01 0 0 0
2037 1 2.3501490788155632e+01 -5.4578354008796559e+00 1.2508041431088769e+01 0 0 0
2038 1 2.4776545158123579e+01 -4.0726875075596967e+00 1.3914857269181470e+01 0 0 0
2042 1 9.7020113828573132e-02 1.2450915525464508e+00 1.0971149309291954e+01 0 0 0
2004 1 2.7346228662021921e-01 -1.2754935189860721e+00 1.3837780738986256e+01 0 0 0
2045 1 1.5659323857269321e+00 1.1229624032270634e-01 1.2367521966268097e+01 0 0 0
2008 1 2.9416532917266638e+00 -1.3821507699115294e+00 1.1159035122250307e+01 0 0 0
2012 1 5.7962038761921937e+00 -1.5018818018091111e+00 1.3787655653937152e+01 0 0 0
2053 1 7.1102030028406418e+00 -2.5888993036107203e-03 1.2544748985558934e+01 0 0 0
2016 1 8.3607054603284308e+00 -1.4926665649235902e+00 1.1109047495362804e+01 0 0 0
2054 1 8.4887995081896861e+00 1.3762756111438992e+00 1.3754865257575259e+01 0 0 0
2024 1 1.3757631977410199e+01 -1.5189392632747685e+00 1.1189312697315696e+01 0 0 0
2020 1 1.1130445679322367e+01 -1.4088684255601127e+00 1.3813110465213034e+01 0 0 0
2061 1 1.2434237422006948e+01 -1.6658059698491587e-01 1.2471479459082110e+01 0 0 0
2066 1 1.6694827066512204e+01 1.2976692255552094e+00 1.1096598136347545e+01 0 0 0
2028 1 1.6409042274205564e+01 -1.4511140051384857e+00 1.3794020539409946e+01 0 0 0
2032 1 1.9385264556746829e+01 -1.4649172406843274e+00 1.1056536952946153e+01 0 0 0
2069 1 1.8005576542070482e+01 -1.4470585245125075e-01 1.2532003793538790e+01 0 0 0
2070 1 1.9456647868962548e+01 1.2834929411880156e+00 1.3904608525155808e+01 0 0 0
2036 1 2.1912090907159069e+01 -1.4473021376126218e+00 1.3883088633431253e+01 0 0 0
2040 1 2.4722378600164468e+01 -1.4989418407884494e+00 1.1120849527193920e+01 0 0 0
2077 1 2.3392881822840437e+01 -8.1252871246292283e-02 1.2524062395722849e+01 0 0 0
2043 1 2.6059386225047003e+01 2.5056565356349600e+00 1.2430963183316955e+01 -1 0 0
2044 1 2.3011820520639717e-01 4.0170993952311456e+00 1.3719008064991078e+01 0 0 0
2048 1 2.9905010037672382e+00 4.0167996102359842e+00 1.1056868137313581e+01 0 0 0
2051 1 4.4115116501618905e+00 2.7143615362956663e+00 1.2357631721902102e+01 0 0 0
2050 1 5.7346485785291694e+00 1.3046848360690968e+00 1.1153622699035674e+01 0 0 0
2052 1 5.6772551426471667e+00 3.9889369899014553e+00 1.3760239538941015e+01 0 0 0
2056 1 8.4114890821578410e+00 4.0897606471501042e+00 1.1126040282790500e+01 0 0 0
2059 1 9.7525217889803297e+00 2.7700430976351420e+00 1.2440875377365240e+01 0 0 0
2058 1 1.1077439377595379e+01 1.2909604170806805e+00 1.1131073797718006e+01 0 0 0
2064 1 1.3931447381073582e+01 4.0583731149542839e+00 1.1131809020501777e+01 0 0 0
2067 1 1.5380239961261200e+01 2.6840554904973617e+00 1.2385917399623928e+01 0 0 0
2068 1 1.6696208667706351e+01 4.0158177134750268e+00 1.3753596100484687e+01 0 0 0
2072 1 1.9318235914839793e+01 3.9505340405895404e+00 1.0978737145991200e+01 0 0 0
2074 1 2.2099566444803639e+01 1.2789499862319913e+00 1.1094165332405307e+01 0 0 0
2075 1 2.0623927055924316e+01 2.6718032983655697e+00 1.2511440501941674e+01 0 0 0
2076 1 2.1989441817843069e+01 4.0627001107876204e+00 1.3813492434996757e+01 0 0 0
2078 1 2.4726250482861332e+01 1.3172784960176107e+00 1.3870919674139499e+01 0 0 0
2080 1 2.4802057111596127e+01 4.0102897076083881e+00 1.1094002916223099e+01 0 0 0
2082 1 2.2361941410722144e-01 6.7921866681815812e+00 1.1130419513679866e+01 0 0 0
2085 1 1.6057466952675175e+00 5.3348959004809728e+00 1.2481297221995453e+01 0 0 0
2086 1 2.9918171111710685e+00 6.7067746579666165e+00 1.3854845098817808e+01 0 0 0
2090 1 5.6560277116646560e+00 6.6799249771475449e+00 1.1060840765652383e+01 0 0 0
2093 1 6.9640635783760665e+00 5.3967806546700876e+00 1.2376565180008500e+01 0 0 0
2094 1 8.3142198182349638e+00 6.8322490889670959e+00 1.3785354779329969e+01 0 0 0
2099 1 9.8329344755138202e+00 8.0903560736271096e+00 1.2463087725506025e+01 0 0 0
2098 1 1.1093438622459116e+01 6.5792030925525848e+00 1.1141759162906737e+01 0 0 0
2101 1 1.2476971545355534e+01 5.3751544118577321e+00 1.2558619882974783e+01 0 0 0
2102 1 1.3981940831750968e+01 6.6917442863160659e+00 1.3865266152115959e+01 0 0 0
2106 1 1.6589743326554935e+01 6.6928340611268853e+00 1.1140816974468260e+01 0 0 0
2109 1 1.8047629525044819e+01 5.3680920326689314e+00 1.2376417118991951e+01 0 0 0
2110 1 1.9311384446885015e+01 6.7930441017197278e+00 1.3767441381128448e+01 0 0 0
2114 1 2.2058176182327315e+01 6.6576156313684507e+00 1.0995374777710143e+01 0 0 0
2117 1 2.3414388679367125e+01 5.3578820569719827e+00 1.2433037395197191e+01 0 0 0
2118 1 2.4715327133262527e+01 6.8614523832498540e+00 1.3725912475900259e+01 0 0 0
2084 1 3.0020133101546947e-01 9.3630839770467809e+00 1.3749982189992162e+01 0 0 0
2125 1 1.7677129172666493e+00 1.0771655787261649e+01 1.2512563993253950e+01 0 0 0
2091 1 4.3469777462972496e+00 8.1079207898625274e+00 1.2513066243157896e+01 0 0 0
2088 1 3.0071000273254214e+00 9.4506087213055512e+00 1.1140996720347566e+01 0 0 0
2092 1 5.6751524946395469e+00 9.4362386471508568e+00 1.3828403650098153e+01 0 0 0
2133 1 7.0629106374080468e+00 1.0749810114014124e+01 1.2434129470450829e+01 0 0 0
2096 1 8.5065068704189528e+00 9.3399856939748656e+00 1.1154772282611008e+01 0 0 0
2104 1 1.3875640099280135e+01 9.4162344653833880e+00 1.1106119169207002e+01 0 0 0
2100 1 1.1120678587386143e+01 9.5117134661305354e+00 1.3811373383873519e+01 0 0 0
2141 1 1.2619158171773604e+01 1.0867990890967150e+01 1.2538098929430447e+01 0 0 0
2107 1 1.5275465041343159e+01 8.1053246964401691e+00 1.2490642303465512e+01 0 0 0
2108 1 1.6765068966533928e+01 9.5628348261169922e+00 1.3813958075398382e+01 0 0 0
2112 1 1.9362375730177600e+01 9.4480243117948195e+00 1.1099198805652330e+01 0 0 0
2149 1 1.8054878633895669e+01 1.0888158584950892e+01 1.2453069403815691e+01 0 0 0
2115 1 2.0740198676913053e+01 8.1059505890570982e+00 1.2413695907756340e+01 0 0 0
2116 1 2.2068570908160801e+01 9.5421113142427920e+00 1.3831584729578438e+01 0 0 0
2120 1 2.4861750186107876e+01 9.5311311217761485e+00 1.1199018941799604e+01 0 0 0
2083 1 2.6092850805462156e+01 8.0874562502083371e+00 1.2409787570967234e+01 -1 0 0
2157 1 2.3458026048103477e+01 1.0873294828573950e+01 1.2555801308142508e+01 0 0 0
3007 1 1.6260146657950039e+00 -2.5920712286074914e+00 1.5157613111128018e+01 0 0 0
3002 1 2.8819826523643616e-01 -4.1383917369916592e+00 1.6484794194414704e+01 0 0 0
4149 1 1.7877149480170861e+01 1.0692402016392986e+01 2.3382806061580247e+01 0 0 0
3015 1 7.1210113773640540e+00 -2.7331718711362765e+00 1.5341895579507563e+01 0 0 0