LAMMPS data file via write_data, version 30 Jul 2016, timestep = 50000

5000 atoms
1 atom types

-1.1037168688014471e+00 2.6103716868801385e+01 xlo xhi
-5.5185843440072304e+00 1.3051858434400725e+02 ylo yhi
-1.1037168688014471e+00 2.6103716868801385e+01 zlo zhi

Masses

1 28.0855

Atoms # atomic

2 1 3.6215299341032903e-01 -4.0691247849577623e+00 3.2573787957288475e-01 0 0 0
3 1 -1.0346775659782463e+00 -2.7242290624150334e+00 1.7049194550861040e+00 0 0 0
7 1 1.8150073504331854e+00 -2.8721181193678023e+00 -1.0770613146664003e+00 0 0 0
11 1 4.2372429930902769e+00 -2.6421778917536400e+00 1.5121186106412308e+00 0 0 0
10 1 5.7900702511866848e+00 -4.0393332143230136e+00 2.9594594728134488e-01 0 0 0
1029 1 1.7940903639215545e+01 -5.4856616973853249e+00 7.0549910333209196e+00 0 0 0
19 1 9.8337385835080866e+00 -2.7120716806156766e+00 1.6605826628275173e+00 0 0 0
17 1 9.8349551545238931e+00 -5.4727952393131103e+00 -1.0536177455403133e+00 0 0 0
18 1 1.1237398438493418e+01 -4.1115438457298339e+00 3.8958343957086022e-01 0 0 0
23 1 1.2542022397529362e+01 -2.7363301712528543e+00 -1.0568812138162551e+00 0 0 0
27 1 1.5144952943717733e+01 -2.6899222508429901e+00 1.6187680481299804e+00 0 0 0
26 1 1.6609070578737970e+01 -3.9885500893673438e+00 3.6718084413844293e-01 0 0 0
2021 1 1.2457997341786751e+01 -5.4682099884670947e+00 1.2415977947567590e+01 0 0 0
34 1 2.2138212212526913e+01 -4.0577146693722650e+00 2.7927769043894934e-01 0 0 0
35 1 2.0805569696311302e+01 -2.7128570266710987e+00 1.6214183133538422e+00 0 0 0
1025 1 1.5353049971026033e+01 -5.3655800924985897e+00 4.3443443134065980e+00 0 0 0
41 1 -9.2048280787179781e-01 -1.8773968639784847e-01 -1.0977862192367218e+00 0 0 0
45 1 1.7250053829611181e+00 -1.2385099280252403e-01 1.6474248276094881e+00 0 0 0
49 1 4.3789436248355837e+00 1.0191428282136394e-01 -1.1013759122164815e+00 0 0 0
8 1 3.0580795249503137e+00 -1.2580997018655233e+00 1.7089774138568636e-01 0 0 0
53 1 7.0506423648851317e+00 4.1543992475574755e-02 1.6125415135258701e+00 0 0 0
50 1 5.6875429002419526e+00 1.4242884395859312e+00 3.0237319477580765e-01 0 0 0
16 1 8.4164826998613655e+00 -1.3520448317592229e+00 2.8023726029940232e-01 0 0 0
1009 1 4.4803668406697881e+00 -5.4109896368258319e+00 4.3177275135428967e+00 0 0 0
58 1 1.1196041120067866e+01 1.2353518085109705e+00 1.5373760419600635e-01 0 0 0
24 1 1.3899987623461204e+01 -1.4484167019312759e+00 1.9740411665046750e-01 0 0 0
61 1 1.2556198005313245e+01 -4.2327557802760520e-02 1.5229540196618938e+00 0 0 0
66 1 1.6606535209063594e+01 1.3308603743585501e+00 2.0306331442952424e-01 0 0 0
1001 1 -8.9378098986674381e-01 -5.4608735901890100e+00 4.3460753495064273e+00 0 0 0
69 1 1.8046257825133441e+01 -5.8904409437043073e-02 1.4938510709581301e+00 0 0 0
32 1 1.9309377245524999e+01 -1.5294878718598846e+00 2.5493711101876476e-01 0 0 0
73 1 2.0840334909693023e+01 -1.7058355076672960e-01 -1.0176281216728045e+00 0 0 0
77 1 2.3629543542543399e+01 -7.9887019699234313e-02 1.6100134204885719e+00 0 0 0
40 1 2.4924665678336492e+01 -1.5004025829308392e+00 3.0207018266739283e-01 0 0 0
42 1 2.8946478935901293e-01 1.2655824322471383e+00 3.0466933908617894e-01 0 0 0
47 1 1.5843172529563285e+00 2.7353099759703952e+00 -1.0624708681957977e+00 0 0 0
51 1 4.3314723044077663e+00 2.6940362891315526e+00 1.7437132041455974e+00 0 0 0
48 1 2.8748869189812440e+00 3.9842664794844671e+00 3.8021659928050650e-01 0 0 0
56 1 8.5483390967468331e+00 4.0679746429890580e+00 1.9488321098076553e-01 0 0 0
59 1 9.8159930216661238e+00 2.6332154794168150e+00 1.5315554020154325e+00 0 0 0
64 1 1.3894931334864868e+01 4.1122410127251046e+00 9.4056101944788043e-02 0 0 0
67 1 1.5167008183394898e+01 2.7426649784167134e+00 1.4232251491912005e+00 0 0 0
72 1 1.9320388892032998e+01 3.9834780953458582e+00 2.0197956612277268e-01 0 0 0
2029 1 1.8119242389593616e+01 -5.5170176845746823e+00 1.2375313574170848e+01 0 0 0
74 1 2.2199695917802039e+01 1.2372329307036847e+00 2.7906370601506469e-01 0 0 0
75 1 2.0794380772533991e+01 2.6244775455889902e+00 1.6178652444917683e+00 0 0 0
37 1 2.3492381291730261e+01 -5.4736486478840334e+00 1.6492938407777167e+00 0 0 0
80 1 2.4809719177753248e+01 4.0859984301919328e+00 1.5279763194146889e-01 0 0 0
43 1 2.6052346841533225e+01 2.6740151968828885e+00 1.5224754149909445e+00 -1 0 0
82 1 2.3163444660126098e-01 6.6969351948030713e+00 1.3617555885295912e-01 0 0 0
85 1 1.5002333515204036e+00 5.2880213726553587e+00 1.7378010894385287e+00 0 0 0
2033 1 2.0732714608099002e+01 -5.4893597635215201e+00 9.6874063629264917e+00 0 0 0
89 1 4.2819822113493444e+00 5.3476868761305560e+00 -9.4780918839132566e-01 0 0 0
91 1 4.2944788297360361e+00 8.0319635170746295e+00 1.4173942742317300e+00 0 0 0
90 1 5.7055235140346019e+00 6.6615397498116051e+00 2.1895069311874835e-01 0 0 0
93 1 7.1784148814601147e+00 5.3478938019234032e+00 1.5742253191521287e+00 0 0 0
98 1 1.1133278896034374e+01 6.7780544181349391e+00 2.1566494485176912e-01 0 0 0
101 1 1.2591027732119422e+01 5.5201292845407686e+00 1.5874131155359141e+00 0 0 0
106 1 1.6655881847322046e+01 6.7721517897023871e+00 1.8034098270415239e-01 0 0 0
33 1 2.0918203856906196e+01 -5.5134611696900606e+00 -1.0666091840951837e+00 0 0 0
109 1 1.7953083575105708e+01 5.4691628915427648e+00 1.6171075905310983e+00 0 0 0
114 1 2.2146269819945534e+01 6.6906075205167808e+00 1.0621918478953017e-01 0 0 0
115 1 2.0816426945637719e+01 8.0470134205354107e+00 1.6170808091535411e+00 0 0 0
29 1 1.8069735211634729e+01 -5.3259360205682924e+00 1.7224595732374073e+00 0 0 0
117 1 2.3306976835584774e+01 5.4065544788656501e+00 1.4520494335957210e+00 0 0 0
25 1 1.5205886241595989e+01 -5.3100192588373432e+00 -1.0787179690295496e+00 0 0 0
125 1 1.6661067602822484e+00 1.0676767010579020e+01 1.5116037452170978e+00 0 0 0
88 1 3.0042869582169733e+00 9.3956318911307175e+00 2.0630202794244934e-01 0 0 0
5 1 1.7543388968166835e+00 -5.3650814551401709e+00 1.7411343599895821e+00 0 0 0
133 1 6.9660292246188495e+00 1.0705270425335430e+01 1.7131308725676995e+00 0 0 0
99 1 9.6824556140580533e+00 8.1123988913936849e+00 1.6514550933464287e+00 0 0 0
96 1 8.3749015632218384e+00 9.3767734442719792e+00 3.3038773471146121e-01 0 0 0
137 1 9.6700683922767947e+00 1.0761426659087112e+01 -1.0564158998375899e+00 0 0 0
103 1 1.2517034697053964e+01 8.0918710290385487e+00 -1.0937404003356157e+00 0 0 0
104 1 1.3856948955188575e+01 9.5007143844196502e+00 1.9120339775995251e-01 0 0 0
141 1 1.2447876067005124e+01 1.0794890542386018e+01 1.5639059208329058e+00 0 0 0
107 1 1.5311725555317530e+01 8.1520350600043834e+00 1.5296962721583556e+00 0 0 0
2153 1 2.0690626587461537e+01 1.0899893781767116e+01 9.8113623041025804e+00 0 0 0
149 1 1.7980429667095503e+01 1.0695572080032306e+01 1.6358856253941545e+00 0 0 0
112 1 1.9416926074258967e+01 9.4836245995158013e+00 3.3485000865090930e-01 0 0 0
157 1 2.3495395506511713e+01 1.0739572099206088e+01 1.6096160225933149e+00 0 0 0
120 1 2.4778226092262368e+01 9.4563238852084943e+00 2.3292458676585256e-01 0 0 0
83 1 -1.0644052390687762e+00 7.9898410581859487e+00 1.5480487205933131e+00 0 0 0
2112 1 1.9265368356924416e+01 9.5487407682644605e+00 1.1162184697513283e+01 0 0 0
1007 1 1.6035920893793740e+00 -2.6040355315169301e+00 4.5214813878354150e+00 0 0 0
6 1 3.0078776157307607e+00 -3.9676713481047217e+00 2.9598529693015152e+00 0 0 0
1015 1 7.0456058839731055e+00 -2.6770349629979817e+00 4.3291484543005270e+00 0 0 0
1010 1 5.7176107323269489e+00 -4.0924642540347671e+00 5.8040554188471907e+00 0 0 0
14 1 8.4418522821179600e+00 -4.1436541691208202e+00 2.9844169211564662e+00 0 0 0
1017 1 9.7253307442692858e+00 -5.4295459279339573e+00 4.3345621819594111e+00 0 0 0
1018 1 1.1076723264692680e+01 -3.9730482225546013e+00 5.7019741132336605e+00 0 0 0
22 1 1.3866867109527437e+01 -4.0957278268649961e+00 3.0007983579645114e+00 0 0 0
1023 1 1.2568602775290584e+01 -2.7770386456708853e+00 4.3283753929672075e+00 0 0 0
1031 1 1.7969575786153296e+01 -2.7037048495940579e+00 4.3899304152459333e+00 0 0 0
30 1 1.9404125217452489e+01 -3.9933806367093054e+00 3.0008052775373462e+00 0 0 0
1033 1 2.0797564760743221e+01 -5.4753399788674999e+00 4.3429989972140879e+00 0 0 0
38 1 2.4875441053935461e+01 -4.1018280992652372e+00 2.9835017942505235e+00 0 0 0
1039 1 2.3400631408436844e+01 -2.8707501745998112e+00 4.1773757457553513e+00 0 0 0
4 1 2.6860242716488419e-01 -1.3259856619542301e+00 3.1089734449091608e+00 0 0 0
1042 1 1.4099103285915854e-01 1.2356825968430682e+00 5.7354069685662070e+00 0 0 0
1049 1 4.4426317153330972e+00 -4.3074697528163904e-02 4.3827886140651833e+00 0 0 0
1008 1 3.1131966605909791e+00 -1.3538122155360448e+00 5.7938904863461564e+00 0 0 0
12 1 5.6881633915318277e+00 -1.4595500412909690e+00 2.9039966416673759e+00 0 0 0
54 1 8.4611174419977964e+00 1.2811661652653101e+00 2.9978857493225011e+00 0 0 0
1057 1 9.7855914998438696e+00 -1.5651896821152728e-01 4.2279548672844633e+00 0 0 0
1016 1 8.5378711793798132e+00 -1.4943866680343449e+00 5.7122367374015424e+00 0 0 0
20 1 1.1346484539885449e+01 -1.4003058200573784e+00 2.8794180640498488e+00 0 0 0
1058 1 1.1067880163490202e+01 1.2903673698940445e+00 5.5023809801893009e+00 0 0 0
1024 1 1.3813097002863142e+01 -1.2639473887484529e+00 5.6154980909932437e+00 0 0 0
1065 1 1.5296960199348337e+01 1.0961112694624979e-02 4.2799630121908825e+00 0 0 0
28 1 1.6627836662429694e+01 -1.4284983393165913e+00 2.9103427558421613e+00 0 0 0
1073 1 2.0916445025449992e+01 1.7891063438294285e-02 4.3917252138272795e+00 0 0 0
36 1 2.2140023298383962e+01 -1.3614893874849079e+00 2.9392533818300750e+00 0 0 0
1041 1 2.6017866992646802e+01 -8.6296743120663124e-05 4.3597585050370720e+00 -1 0 0
78 1 2.4721490698971419e+01 1.4134259523389119e+00 2.9220266189090602e+00 0 0 0
44 1 1.7415604316584771e-01 3.9970409171011454e+00 2.9994688296002425e+00 0 0 0
1047 1 1.5057199021834491e+00 2.6665244325495450e+00 4.4482615017556784e+00 0 0 0
46 1 3.0137757605634077e+00 1.3417522191764608e+00 3.0327151989295902e+00 0 0 0
1048 1 2.9630800373344619e+00 3.9860863487827829e+00 5.6471767499886276e+00 0 0 0
52 1 5.7927614163648578e+00 3.9811081724010386e+00 3.0014517519758601e+00 0 0 0
1055 1 7.0682656548439198e+00 2.6547381363123264e+00 4.3786268595240827e+00 0 0 0
1056 1 8.4736085617694918e+00 4.0864062197982944e+00 5.6112082930536786e+00 0 0 0
60 1 1.1259231636609007e+01 4.0667907965465195e+00 2.8818775012198459e+00 0 0 0
62 1 1.3967248067517984e+01 1.3467455746105059e+00 2.8530912868522624e+00 0 0 0
1063 1 1.2473414441954304e+01 2.7083838777810052e+00 4.1782097768164066e+00 0 0 0
68 1 1.6526896309737076e+01 4.0513364323212580e+00 2.8844742840450155e+00 0 0 0
1071 1 1.8011204266152046e+01 2.6613728807748549e+00 4.1715744341841319e+00 0 0 0
70 1 1.9406121460441337e+01 1.2585585820070881e+00 2.9264739714877384e+00 0 0 0
76 1 2.2018938291881625e+01 4.0637263413431404e+00 2.9630610214214714e+00 0 0 0
1079 1 2.3357038233757017e+01 2.6711609420640299e+00 4.3049927889566550e+00 0 0 0
1087 1 1.6568142779936148e+00 7.9732607723384632e+00 4.2923664493413130e+00 0 0 0
1089 1 4.3492925796573889e+00 5.2627326715995855e+00 4.3582564844235296e+00 0 0 0
86 1 3.0255150535460591e+00 6.6336742493279441e+00 2.8593213465765706e+00 0 0 0
94 1 8.4117646725784443e+00 6.8333510103492738e+00 2.9721081964381306e+00 0 0 0
1097 1 9.8851614740562272e+00 5.3911481486922934e+00 4.2279213042682180e+00 0 0 0
1103 1 1.2560265535310368e+01 8.1525187302538864e+00 4.2339621728289858e+00 0 0 0
102 1 1.3983918786625241e+01 6.8675655125357844e+00 2.8801655528532124e+00 0 0 0
1105 1 1.5232443151023578e+01 5.5569020838938359e+00 4.3176242458150407e+00 0 0 0
110 1 1.9283985065804700e+01 6.8445123362704221e+00 3.0229335686396266e+00 0 0 0
1113 1 2.0782401414122749e+01 5.4825095992773356e+00 4.3523699648689611e+00 0 0 0
118 1 2.4718100590862836e+01 6.7528543574400208e+00 2.9408477465537799e+00 0 0 0
1119 1 2.3341037124609020e+01 8.0650312069850401e+00 4.3994856893734813e+00 0 0 0
1081 1 -1.0963445377477363e+00 5.3999541360851993e+00 4.2156867236186528e+00 0 0 0
84 1 3.9279608526692056e-01 9.3556084420900323e+00 2.9364937032563949e+00 0 0 0
1129 1 4.2460671892670039e+00 1.0840460392333686e+01 4.3505489739389862e+00 0 0 0
1095 1 6.9422412963439957e+00 8.0342777587094485e+00 4.4108789821580840e+00 0 0 0
92 1 5.5636837470522611e+00 9.3577539920036692e+00 2.9871176822365073e+00 0 0 0
1137 1 9.7372352144239365e+00 1.0734216252739108e+01 4.4544399548723037e+00 0 0 0
100 1 1.1090602988996332e+01 9.4655521732386774e+00 3.0194165540060762e+00 0 0 0
1145 1 1.5223071596656968e+01 1.0825396048547185e+01 4.2285484945503047e+00 0 0 0
108 1 1.6550042813877742e+01 9.4069001343990788e+00 2.9937295207891008e+00 0 0 0
1111 1 1.7866151124379627e+01 8.2629506138624151e+00 4.4913302739270629e+00 0 0 0
1153 1 2.0652621248272553e+01 1.0879384252793894e+01 4.2645025769511671e+00 0 0 0
116 1 2.2074945022784789e+01 9.5828459502250780e+00 2.9606958354296093e+00 0 0 0
1120 1 2.4669517606911164e+01 9.4959130436522940e+00 5.6763391234474723e+00 0 0 0
1121 1 -9.8334361616049648e-01 1.0767992458891777e+01 4.3232418814718860e+00 0 0 0
1002 1 4.5595668433237030e-01 -4.1859754320178340e+00 5.8469347578780342e+00 0 0 0
1011 1 4.3009039555265689e+00 -2.7725109355709034e+00 7.1182855752503738e+00 0 0 0
1006 1 3.1169367926080289e+00 -4.1846910669173747e+00 8.5922893035899968e+00 0 0 0
1013 1 7.1264736859240188e+00 -5.5045987826221232e+00 7.1278248733767411e+00 0 0 0
1019 1 9.7999806303127706e+00 -2.7059689096736990e+00 7.1511576724538006e+00 0 0 0
1014 1 8.4967380771225489e+00 -4.1502376344339948e+00 8.5533747065315566e+00 0 0 0
1021 1 1.2473623509230970e+01 -5.4386605466365285e+00 7.0451336629339565e+00 0 0 0
1022 1 1.3893153187083053e+01 -4.0795014803403120e+00 8.3337548357803826e+00 0 0 0
1027 1 1.5253365901452845e+01 -2.6069222208776823e+00 6.9555165129722809e+00 0 0 0
1026 1 1.6630838333765112e+01 -3.9793535830759121e+00 5.7791832970955905e+00 0 0 0
1030 1 1.9330123056620586e+01 -4.0285831599375195e+00 8.1937970858574456e+00 0 0 0
1034 1 2.2160838519136988e+01 -4.1906843816140666e+00 5.6692055354101001e+00 0 0 0
1035 1 2.0739075436719681e+01 -2.6390088241536200e+00 6.9084316838421858e+00 0 0 0
1038 1 2.4714501074771334e+01 -4.2085525649287865e+00 8.3332971355872889e+00 0 0 0
1003 1 -1.0475126163633703e+00 -2.8992887125639282e+00 7.0791645887774388e+00 0 0 0
1045 1 1.5965209646127929e+00 -1.0051009206332541e-01 7.0569943998123419e+00 0 0 0
1004 1 3.2201136103213185e-01 -1.4998476442716568e+00 8.3659104013593044e+00 0 0 0
1053 1 6.9818948456479939e+00 -7.8151425724496848e-02 6.9662445086986402e+00 0 0 0
1012 1 5.6287231141801142e+00 -1.4005683513760883e+00 8.2953025087260901e+00 0 0 0
1020 1 1.1174482695110955e+01 -1.3667201454593267e+00 8.4424566193083059e+00 0 0 0
1061 1 1.2480791845722974e+01 1.4016314621833633e-02 7.0742334594900429e+00 0 0 0
1028 1 1.6649541366371437e+01 -1.4282607623114387e+00 8.4365337677831800e+00 0 0 0
1069 1 1.7921174547058857e+01 -2.7614292091739316e-02 6.9506545491868126e+00 0 0 0
1032 1 1.9351149307360124e+01 -1.2617154212183330e+00 5.6270051988649108e+00 0 0 0
1074 1 2.2052277830987940e+01 1.4989084698046280e+00 5.7367355855350617e+00 0 0 0
1036 1 2.2012847619908360e+01 -1.2574394137149287e+00 8.4125383804135989e+00 0 0 0
1077 1 2.3376334683519989e+01 2.3124863965468090e-02 7.0361163127845474e+00 0 0 0
1040 1 2.4700454511304372e+01 -1.5351505725720349e+00 5.6728993531829621e+00 0 0 0
1044 1 1.5346796979625704e-01 4.0816169308679431e+00 8.3903912097027771e+00 0 0 0
1051 1 4.3315038134301833e+00 2.5252384656879636e+00 7.1243398956154351e+00 0 0 0
1046 1 2.9543736482657321e+00 1.3444740252846599e+00 8.4976781047411691e+00 0 0 0
1050 1 5.6764682200257024e+00 1.2599886771332229e+00 5.7160881900277971e+00 0 0 0
1052 1 5.6435134677219780e+00 4.0319469867111470e+00 8.3837170650952544e+00 0 0 0
1059 1 9.8049625036561814e+00 2.6523334796044242e+00 7.0546736699577037e+00 0 0 0
1054 1 8.3218372678814188e+00 1.4110469479348897e+00 8.3110566434247151e+00 0 0 0
1060 1 1.1200666277781778e+01 4.0591879825833841e+00 8.4119063762652058e+00 0 0 0
1064 1 1.3705720164312448e+01 4.1873302911003911e+00 5.5016956021951078e+00 0 0 0
1062 1 1.3819034220885085e+01 1.3683863989403531e+00 8.3421333633353569e+00 0 0 0
1066 1 1.6585946409882602e+01 1.3864659549150473e+00 5.5899375482552704e+00 0 0 0
1067 1 1.4999437233667525e+01 2.7702626119324876e+00 6.9281866639508767e+00 0 0 0
1068 1 1.6439662331522012e+01 4.0941995205841941e+00 8.2636666989406873e+00 0 0 0
1072 1 1.9266636816949053e+01 4.0664758186480121e+00 5.6764486676399146e+00 0 0 0
1070 1 1.9212158663760665e+01 1.3600205228714968e+00 8.4699083910745916e+00 0 0 0
1075 1 2.0541075227545107e+01 2.7247405196804655e+00 6.9990114838702073e+00 0 0 0
1076 1 2.2011562698433568e+01 4.0575271612408725e+00 8.3355287847993491e+00 0 0 0
1080 1 2.4781995040498433e+01 4.0705871527895274e+00 5.6067497097771026e+00 0 0 0
1078 1 2.4760586489305712e+01 1.3120885421942230e+00 8.4900773568990662e+00 0 0 0
1043 1 2.6058843065163707e+01 2.7371406663633442e+00 7.0297198662256770e+00 -1 0 0
1082 1 1.9432373733467465e-01 6.7523577195663487e+00 5.6211081445806848e+00 0 0 0
1085 1 1.5067308335766445e+00 5.3551968814433826e+00 7.0232549828679174e+00 0 0 0
1091 1 4.2636673332456816e+00 7.9479960720858864e+00 7.0867495066059369e+00 0 0 0
1086 1 2.8685412241738493e+00 6.7097574928885440e+00 8.4441069632170151e+00 0 0 0
1090 1 5.5573549054615059e+00 6.6289942091359233e+00 5.7246488121787200e+00 0 0 0
1093 1 7.1403613485654214e+00 5.3634548626657246e+00 7.0372955636629939e+00 0 0 0
1099 1 9.7535465814869919e+00 8.0503072508386140e+00 7.0455322713095256e+00 0 0 0
1094 1 8.5201939060987097e+00 6.6333636830292519e+00 8.4042558688373088e+00 0 0 0
1098 1 1.1196061095503804e+01 6.8446646848265154e+00 5.6234310120346969e+00 0 0 0
1101 1 1.2438040849813753e+01 5.4227708930811316e+00 6.9982557296862486e+00 0 0 0
1102 1 1.3918349153776505e+01 6.7302962155583721e+00 8.2920241406459620e+00 0 0 0
1106 1 1.6523692184167643e+01 6.8318211408157428e+00 5.7189390903551205e+00 0 0 0
1109 1 1.7962064041552374e+01 5.5349085412876882e+00 7.0630773234308375e+00 0 0 0
1110 1 1.9364161384496207e+01 6.9096137383768106e+00 8.3712411331939265e+00 0 0 0
1114 1 2.2069347043709588e+01 6.8858032837054317e+00 5.8645699930497051e+00 0 0 0
1117 1 2.3327420817416087e+01 5.3779961049137226e+00 7.0028956798032382e+00 0 0 0
1118 1 2.4748558541424547e+01 6.7022862636786416e+00 8.4084119196921421e+00 0 0 0
1083 1 2.6061962317980569e+01 8.1009907797543690e+00 7.0040452797174666e+00 -1 0 0
1125 1 1.5542895091791273e+00 1.0757466726887982e+01 7.0615339427935062e+00 0 0 0
1084 1 2.3976660162457830e-01 9.3625523594058055e+00 8.4049869014721779e+00 0 0 0
1088 1 2.9646138917350315e+00 9.3539841601884994e+00 5.7569802974666118e+00 0 0 0
1133 1 6.9055406708277545e+00 1.0770199421198226e+01 7.0744581381361371e+00 0 0 0
1092 1 5.5771163971886502e+00 9.3735028871457988e+00 8.4118998842757318e+00 0 0 0
1096 1 8.3695409962017688e+00 9.4058230863360457e+00 5.7313616628369370e+00 0 0 0
1141 1 1.2328485171186285e+01 1.0772791849757530e+01 7.0005194439888401e+00 0 0 0
1100 1 1.1104201108361464e+01 9.4273344149046832e+00 8.4036551917390323e+00 0 0 0
1104 1 1.3848679357768097e+01 9.5006019504493029e+00 5.6462647818796361e+00 0 0 0
1107 1 1.5149605850046481e+01 8.2147303362398869e+00 7.0354058326107047e+00 0 0 0
1108 1 1.6658571453569433e+01 9.5176460685867017e+00 8.3570318684143654e+00 0 0 0
1149 1 1.8166749095690573e+01 1.0771417694487768e+01 7.1232280921156228e+00 0 0 0
1112 1 1.9389999367137538e+01 9.5740829798727578e+00 5.6335850686250124e+00 0 0 0
1115 1 2.0786586331506761e+01 8.2927816326334618e+00 7.1571367600570381e+00 0 0 0
1116 1 2.2078298735946145e+01 9.6023276656075911e+00 8.5546755616289207e+00 0 0 0
1157 1 2.3373818561080899e+01 1.0943470602526645e+01 7.0724746135301908e+00 0 0 0
2007 1 1.6248742481691445e+00 -2.8434249931179854e+00 9.8724095553073088e+00 0 0 0
2002 1 2.6982678523225895e-01 -4.2089342526025169e+00 1.1252883276911847e+01 0 0 0
2121 1 -1.1021954793691933e+00 1.0831387522256918e+01 9.7028091606650406e+00 0 0 0
2003 1 -1.0591137782259008e+00 -2.6966776548131377e+00 1.2487952012716439e+01 0 0 0
2011 1 4.4302198256516876e+00 -2.6862045990000718e+00 1.2449827430837916e+01 0 0 0
2015 1 7.0969924142042151e+00 -2.6542311117529591e+00 9.7399628111254213e+00 0 0 0
2010 1 5.7872836766410893e+00 -4.0527628448590560e+00 1.1198397267969931e+01 0 0 0
2120 1 2.4654375726005938e+01 9.6882734879457839e+00 1.1110967857247108e+01 0 0 0
2023 1 1.2575447399689184e+01 -2.7200810376720037e+00 9.7554563082371413e+00 0 0 0
2018 1 1.1093190636847748e+01 -4.0894389401599947e+00 1.1117395900725743e+01 0 0 0
2025 1 1.5338593188526014e+01 -5.3473490405362325e+00 9.7394291259625732e+00 0 0 0
2026 1 1.6643465932161781e+01 -3.9736214902985099e+00 1.1039341785391622e+01 0 0 0
2031 1 1.8128712832939563e+01 -2.7765716765880866e+00 9.6845434955256628e+00 0 0 0
2034 1 2.1978307818894649e+01 -3.9768021949650936e+00 1.1123807129122062e+01 0 0 0
2039 1 2.3465922847459431e+01 -2.6818886798152390e+00 9.7281751135235339e+00 0 0 0
2042 1 2.2078199642875709e-01 1.3202893730991994e+00 1.1199533197896205e+01 0 0 0
2041 1 -1.0160039221102335e+00 3.9000449420479116e-02 9.6753819137326751e+00 0 0 0
2049 1 4.2891420891775134e+00 2.9600927038968411e-02 9.8282560637037300e+00 0 0 0
2008 1 2.9512929778038712e+00 -1.4544731316773294e+00 1.1158750397968936e+01 0 0 0
2057 1 9.6739730164341395e+00 5.4499664487006029e-02 9.8029300395143419e+00 0 0 0
2016 1 8.3683054242962260e+00 -1.3482207279531095e+00 1.1185890238657446e+01 0 0 0
2024 1 1.3938303904191065e+01 -1.2438044992960131e+00 1.1119649471595737e+01 0 0 0
2065 1 1.5288463620056051e+01 4.3542801144575004e-02 9.7360586423326829e+00 0 0 0
2066 1 1.6554171460610956e+01 1.4171140584843411e+00 1.1164767260530533e+01 0 0 0
2032 1 1.9349499583283848e+01 -1.3503755753686741e+00 1.1082323279449637e+01 0 0 0
2073 1 2.0608200461501962e+01 1.9696641935485055e-02 9.7193105782442384e+00 0 0 0
2040 1 2.4824864440270819e+01 -1.3492712958890560e+00 1.1030682576245825e+01 0 0 0
2047 1 1.5522716517531641e+00 2.6776672458285087e+00 9.8553315993179123e+00 0 0 0
2145 1 1.5271261760987137e+01 1.0928277028514444e+01 9.8568697989151346e+00 0 0 0
2048 1 2.9952216572377965e+00 4.0391054296978917e+00 1.1126160465791997e+01 0 0 0
2055 1 7.0491644274537641e+00 2.6360249570384324e+00 9.8506245584911376e+00 0 0 0
2050 1 5.7264053503136534e+00 1.2733682070825856e+00 1.1129559970503280e+01 0 0 0
2056 1 8.4488089077806112e+00 3.9953804141126934e+00 1.1186566900057029e+01 0 0 0
2104 1 1.4018879041535866e+01 9.4607946549895185e+00 1.1121910348458474e+01 0 0 0
2058 1 1.1117247603717669e+01 1.3708033249725513e+00 1.1161498981111880e+01 0 0 0
2064 1 1.4003057769991745e+01 4.0691477334654067e+00 1.1196832588425806e+01 0 0 0
2063 1 1.2527913403076679e+01 2.8567783427783033e+00 9.8314989224695992e+00 0 0 0
2071 1 1.7865864334025421e+01 2.7679232247623049e+00 9.6556811258595800e+00 0 0 0
2072 1 1.9305501341410412e+01 4.0394182704937149e+00 1.1017196123031962e+01 0 0 0
2074 1 2.1937979868812089e+01 1.3491195719510487e+00 1.1087595685240762e+01 0 0 0
2079 1 2.3324352015962052e+01 2.7619631783427208e+00 9.7530978177277419e+00 0 0 0
2080 1 2.4588714897911824e+01 3.9867092082353315e+00 1.1209866776454778e+01 0 0 0
2082 1 7.2515548838325936e-02 6.6816444475336816e+00 1.1297081434015032e+01 0 0 0
2081 1 2.5953787613529457e+01 5.3815556284636665e+00 9.8072922690236890e+00 -1 0 0
2089 1 4.2884580420290517e+00 5.3072338467867963e+00 9.7178716352710381e+00 0 0 0
2090 1 5.7327207860112290e+00 6.5472047357173144e+00 1.1038797586967929e+01 0 0 0
2097 1 9.8160468962575926e+00 5.3582963121482363e+00 9.7566101339355420e+00 0 0 0
2098 1 1.1254491439117480e+01 6.8583166123018904e+00 1.1037807835924268e+01 0 0 0
2105 1 1.5305295719811518e+01 5.3980692315385745e+00 9.7610034093005584e+00 0 0 0
2106 1 1.6773795285476595e+01 6.7467248420455217e+00 1.1032071002289650e+01 0 0 0
2111 1 1.7925768432690667e+01 8.1434865069879390e+00 9.7954013220377210e+00 0 0 0
2113 1 2.0727460504874312e+01 5.4921274494145589e+00 9.7454432174815562e+00 0 0 0
2114 1 2.2121548873109091e+01 6.7185128899172275e+00 1.1180966334884060e+01 0 0 0
2119 1 2.3486172143781918e+01 8.1244197561540332e+00 9.7603248379569632e+00 0 0 0
2103 1 1.2610617362818290e+01 8.1708295217257820e+00 9.6393026611522092e+00 0 0 0
2087 1 1.4376949098398291e+00 8.0333722218300103e+00 9.9687473225187340e+00 0 0 0
2129 1 4.2379526273976591e+00 1.0815013853358066e+01 9.7970597341551446e+00 0 0 0
2088 1 3.0038399588175562e+00 9.3855128006402193e+00 1.1227129285921377e+01 0 0 0
2095 1 7.1284761629742794e+00 7.9046767085596388e+00 9.6781146041853408e+00 0 0 0
2137 1 9.7381738620992842e+00 1.0840153225619378e+01 9.7648873207616447e+00 0 0 0
2096 1 8.4292095169779540e+00 9.4337109115349964e+00 1.1013139521696527e+01 0 0 0
2019 1 9.8311326988140504e+00 -2.6213234517412896e+00 1.2476560645310135e+01 0 0 0
2027 1 1.5249938275869059e+01 -2.7050174940608800e+00 1.2376003000329128e+01 0 0 0
2035 1 2.0622716261954768e+01 -2.7143181786074657e+00 1.2496138587653668e+01 0 0 0
2037 1 2.3388016709387898e+01 -5.4703017483643412e+00 1.2440899882973818e+01 0 0 0
2045 1 1.5300431141610980e+00 -1.3923772966486944e-01 1.2485915644373913e+01 0 0 0
2069 1 1.8050187684204722e+01 6.0819065865975817e-02 1.2497523276426916e+01 0 0 0
2077 1 2.3317562054037250e+01 -4.9404866099309101e-02 1.2347374892428450e+01 0 0 0
2051 1 4.3496554057758905e+00 2.6455024178835482e+00 1.2444604176913924e+01 0 0 0
2085 1 1.5799704524950269e+00 5.2561501954566818e+00 1.2496670999898805e+01 0 0 0
2093 1 7.1943210955021257e+00 5.3924458211642472e+00 1.2472276302235331e+01 0 0 0
2099 1 9.8747081308793376e+00 8.1009794077288362e+00 1.2341829146196483e+01 0 0 0
2109 1 1.8064288359744786e+01 5.3188285170871286e+00 1.2376044763636852e+01 0 0 0
2141 1 1.2639940646104343e+01 1.0898393787720327e+01 1.2424927725780812e+01 0 0 0
2107 1 1.5431480001420075e+01 8.1955443553433280e+00 1.2421815105581135e+01 0 0 0
2149 1 1.7900379012393810e+01 1.0924033840926230e+01 1.2426795563804799e+01 0 0 0
2115 1 2.0686001988945517e+01 8.2672835279257164e+00 1.2415648827547326e+01 0 0 0
95 1 7.0598525963059418e+00 8.0284934528357290e+00 -1.0799859416964033e+00 0 0 0
3007 1 1.6018229121135683e+00 -2.8324108797544709e+00 1.5058223058253510e+01 0 0 0
3001 1 2.6036559809501334e+01 -5.4934435281506664e+00 1.5132798626607242e+01 -1 0 0
2006 1 3.0496872633038619e+00 -4.1640796663571624e+00 1.3720487944859489e+01 0 0 0
3015 1 7.0021588406433670e+00 -2.8652447591523158e+00 1.5180590002154400e+01 0 0 0
2014 1 8.5709016051572782e+00 -4.0087375161108678e+00 1.3902257077438019e+01 0 0 0
4029 1 1.7954599622160597e+01 -5.3917795146442700e+00 2.3354634425497942e+01 0 0 0
4157 1 2.3499508271344755e+01 1.0823630775518721e+01 2.3251697856195133e+01 0 0 0
2022 1 1.3904591549791339e+01 -4.1516240888725164e+00 1.3674592523004263e+01 0 0 0
3023 1 1.2644315144169125e+01 -2.7467247964063337e+00 1.5176444736194895e+01 0 0 0
4033 1 2.0703936620659590e+01 -5.4863539196342685e+00 2.0682234854150174e+01 0 0 0
2030 1 1.9377890114844007e+01 -4.0416232405393533e+00 1.3855155541011538e+01 0 0 0
3031 1 1.8060321949026957e+01 -2.6662825562675638e+00 1.5196356848685168e+01 0 0 0
3029 1 1.7981764511099129e+01 -5.4533321072875367e+00 1.7765267482612416e+01 0 0 0
3033 1 2.0677322647642978e+01 -5.4173914017242453e+00 1.5256874999282799e+01 0 0 0
2038 1 2.4644413749749056e+01 -4.0894884117015184e+00 1.3808250177414944e+01 0 0 0
3039 1 2.3394109186681654e+01 -2.6924075700289762e+00 1.5127140657213699e+01 0 0 0
3009 1 4.3178442777423411e+00 -5.4356845065354946e+00 1.5280102526566260e+01 0 0 0
2004 1 2.0856075233456761e-01 -1.2701086449913883e+00 1.4008118887041606e+01 0 0 0
3041 1 2.6047968220083241e+01 -8.4479057307179084e-02 1.5312483825509648e+01 -1 0 0
2046 1 2.9398343904693705e+00 1.2575763575608898e+00 1.3749849498209326e+01 0 0 0
3049 1 4.3273367185996676e+00 5.8731646965855512e-02 1.5212476317944100e+01 0 0 0
2012 1 5.6745395676560753e+00 -1.3487657789792140e+00 1.3873220885037121e+01 0 0 0
2053 1 7.1404406658851869e+00 -9.8467747663894111e-03 1.2548122947621007e+01 0 0 0
2054 1 8.4115623862970708e+00 1.3405074039237952e+00 1.3949471609012896e+01 0 0 0
3057 1 9.8299283371237269e+00 -4.4934354525533862e-02 1.5275492675414508e+01 0 0 0
2020 1 1.1289958345671343e+01 -1.2809488843061270e+00 1.3905890959557562e+01 0 0 0
2062 1 1.3922470549211901e+01 1.4272405687758518e+00 1.3966997499560319e+01 0 0 0
2061 1 1.2584847228367666e+01 7.7351411375348650e-02 1.2547119261101059e+01 0 0 0
2028 1 1.6685879317309670e+01 -1.3257524022420459e+00 1.3798995620180294e+01 0 0 0
3065 1 1.5277992581754150e+01 -2.6243879589415792e-02 1.5197939224020269e+01 0 0 0
111 1 1.8019648349609614e+01 8.1858380205252352e+00 2.6025856161615849e+01 0 0 -1
2070 1 1.9355685187174334e+01 1.3299895909836499e+00 1.4043027369251240e+01 0 0 0
2036 1 2.1948303928201199e+01 -1.3687326763500323e+00 1.3815354438226983e+01 0 0 0
3073 1 2.0776193754344447e+01 7.9777335023514112e-02 1.5281515463116714e+01 0 0 0
4149 1 1.7950120333011245e+01 1.0732735875330039e+01 2.3344967872721959e+01 0 0 0
2044 1 4.7263404322796507e-02 4.0418498755389018e+00 1.3984221030551902e+01 0 0 0
3047 1 1.5486902012191459e+00 2.6496402155456473e+00 1.5271040794683643e+01 0 0 0
4108 1 1.6538223274557474e+01 9.3920410072039999e+00 2.4536558510613872e+01 0 0 0
2052 1 5.8061127520335765e+00 4.0139825153912447e+00 1.3722573116629833e+01 0 0 0
3055 1 7.0581840208547915e+00 2.7278851512309767e+00 1.5304317309971141e+01 0 0 0
2060 1 1.1175164439875333e+01 4.1753181392964107e+00 1.3936362980204754e+01 0 0 0
3063 1 1.2349878889301767e+01 2.8577091491716677e+00 1.5286533324054176e+01 0 0 0
2067 1 1.5210879626742653e+01 2.6578482419148779e+00 1.2684337397775774e+01 0 0 0
2068 1 1.6671086694338342e+01 4.0140161101671454e+00 1.3739277339863735e+01 0 0 0
3071 1 1.7978834302254846e+01 2.7190388201685458e+00 1.5226055277468864e+01 0 0 0
2075 1 2.0611780314218379e+01 2.6236575749417463e+00 1.2515009486765161e+01 0 0 0