LAMMPS data file via write_data, version 30 Jul 2016, timestep = 10000

1000 atoms
1 atom types

-1.1037168687862149e+00 2.6103716868786151e+01 xlo xhi
-1.1037168687862149e+00 2.6103716868786151e+01 ylo yhi
-1.1037168687862149e+00 2.6103716868786151e+01 zlo zhi

Masses

1 28.0855

Atoms # atomic

2 1 3.2844034160910973e-01 2.7728545920162023e-01 2.9091297820383288e-01 0 0 0
483 1 -1.0577029224558330e+00 1.2459952760210109e+01 1.2452812729150287e+01 0 0 0
11 1 4.3754468713969157e+00 1.6038906632293193e+00 1.4746294358463066e+00 0 0 0
10 1 5.7895781054548392e+00 2.0174819318774589e-01 3.0005325406182387e-01 0 0 0
18 1 1.1129807744560964e+01 1.3499798882748545e-01 2.5190824127765893e-01 0 0 0
19 1 9.7550699928749189e+00 1.4778472602203914e+00 1.6446910621231747e+00 0 0 0
23 1 1.2471060091571992e+01 1.5543868271774601e+00 -1.0449217563304365e+00 0 0 0
45 1 1.5002729953128064e+00 4.3492314551059890e+00 1.5502684098896755e+00 0 0 0
42 1 1.8483202256730552e-01 5.5966821465376766e+00 1.6669425612299407e-01 0 0 0
8 1 3.0082850626595947e+00 3.0697548241998520e+00 2.0551520919289429e-01 0 0 0
53 1 7.0853817400504386e+00 4.2235552238425100e+00 1.6350650138819265e+00 0 0 0
16 1 8.4509925831017547e+00 2.8607556452696592e+00 3.6105407270808593e-01 0 0 0
58 1 1.1151878279712376e+01 5.7108848756430026e+00 2.7699786117671293e-01 0 0 0
205 1 1.7106252880517012e+00 -9.4489163480585248e-01 6.9514904771560317e+00 0 0 0
57 1 9.9089453113938930e+00 4.2018722114563642e+00 -9.9933318187456355e-01 0 0 0
47 1 1.6646054976515070e+00 7.0008528165056294e+00 -1.0113143990941684e+00 0 0 0
51 1 4.3359090143575854e+00 7.0480393479093300e+00 1.6128458799237715e+00 0 0 0
48 1 2.9557885268769604e+00 8.5023075828794852e+00 3.2983662410688896e-01 0 0 0
50 1 5.7007999708674770e+00 5.6588146233278493e+00 3.5729067446096591e-01 0 0 0
56 1 8.5954887710575552e+00 8.4517602942330825e+00 2.1187462371180144e-01 0 0 0
59 1 9.7687859162833028e+00 7.0526135261133822e+00 1.6695286962283731e+00 0 0 0
82 1 3.7290171808037248e-01 1.1084516737575209e+01 3.8091271253334724e-01 0 0 0
85 1 1.7869138140697032e+00 9.8425715887227021e+00 1.7374694527770347e+00 0 0 0
299 1 9.7620286061843835e+00 1.2470091329251582e+01 6.9565231829711136e+00 0 0 0
89 1 4.4014824398863599e+00 9.7320939462316467e+00 -1.0563833210424274e+00 0 0 0
90 1 5.7028988737979978e+00 1.1162813004714407e+01 2.5460365698874393e-01 0 0 0
93 1 7.0909412097862470e+00 9.8184759921958644e+00 1.5027658483300188e+00 0 0 0
263 1 1.2491016113909891e+01 7.0037312076685261e+00 4.2160183047958597e+00 0 0 0
98 1 1.1145676152848148e+01 1.1211024939774436e+01 2.5108889257527178e-01 0 0 0
223 1 1.2430135182405902e+01 1.5239587581821477e+00 4.3195296011284352e+00 0 0 0
207 1 1.8178871474044809e+00 1.6002364484738658e+00 4.1416461720802182e+00 0 0 0
81 1 -9.7895108352820515e-01 9.7333488564537038e+00 -1.0158407046522104e+00 0 0 0
6 1 3.1164453855133081e+00 2.7569239973073506e-01 2.9243068272897013e+00 0 0 0
14 1 8.4410591009988494e+00 2.2298892589073305e-01 3.1325979796582923e+00 0 0 0
215 1 7.0696673985137490e+00 1.6320180576234660e+00 4.5037174165792564e+00 0 0 0
4 1 2.9131613020342467e-01 3.0030949692929525e+00 3.0028867850209768e+00 0 0 0
242 1 2.2328344234607625e-01 5.6999120181954988e+00 5.6892842191106716e+00 0 0 0
249 1 4.4348338628727886e+00 4.3098018022088533e+00 4.2809210451663979e+00 0 0 0
12 1 5.7503666584273674e+00 2.8556506616480815e+00 2.9167251337706754e+00 0 0 0
208 1 3.0083704591775509e+00 3.0122795200412931e+00 5.6578846235339446e+00 0 0 0
46 1 2.9869428008038974e+00 5.6910471453783877e+00 3.0812405378949941e+00 0 0 0
250 1 5.7093232029200163e+00 5.7674870281674639e+00 5.5978715229475746e+00 0 0 0
54 1 8.3556752863793307e+00 5.5596799721809989e+00 3.0095914201002927e+00 0 0 0
257 1 9.8939726937795562e+00 4.1750534860803103e+00 4.2774676871366912e+00 0 0 0
20 1 1.1207059501172425e+01 2.8791359699018964e+00 2.7908632817744925e+00 0 0 0
44 1 2.2586060712612172e-01 8.4156064171172194e+00 2.9549652495846526e+00 0 0 0
247 1 1.5424658872268129e+00 6.9961159319580899e+00 4.3542862230659001e+00 0 0 0
248 1 2.9668088625147946e+00 8.4242073453308421e+00 5.7047340203448531e+00 0 0 0
52 1 5.7318278929331354e+00 8.3404689569457844e+00 2.9330184250055371e+00 0 0 0
255 1 7.1652351694173513e+00 7.0672963773651336e+00 4.4668639216896029e+00 0 0 0
256 1 8.4486130055617235e+00 8.5075749590743932e+00 5.9311615216216875e+00 0 0 0
60 1 1.0980387627821141e+01 8.4438347473063988e+00 3.0180429645663618e+00 0 0 0
282 1 1.3085735636058465e-01 1.1214692102347808e+01 5.8349269564283981e+00 0 0 0
287 1 1.5289907665065561e+00 1.2390475262857784e+01 4.2757840152877566e+00 0 0 0
289 1 4.4203033800818217e+00 9.6928032353724412e+00 4.2728070808000052e+00 0 0 0
86 1 3.0709636693916136e+00 1.1167176191812642e+01 3.0621325314682291e+00 0 0 0
94 1 8.4013156774045790e+00 1.1100975031292489e+01 3.0217128074182336e+00 0 0 0
297 1 9.7089410399021467e+00 9.9062932802351735e+00 4.3726783178943407e+00 0 0 0
298 1 1.1221266883940002e+01 1.1136455337335288e+01 5.6163696083263375e+00 0 0 0
202 1 3.8670426919168843e-01 3.2778840249008911e-01 5.5300155078489954e+00 0 0 0
203 1 -1.0240090240086399e+00 1.5411863441767706e+00 6.9781992590933601e+00 0 0 0
210 1 5.6460456741837000e+00 6.8122967123290509e-02 5.7149242729775924e+00 0 0 0
211 1 4.2346488838073295e+00 1.6395353295018800e+00 7.0256340525305854e+00 0 0 0
206 1 2.7902774735268312e+00 4.2430750206596785e-01 8.3858439879930167e+00 0 0 0
214 1 8.3477498291791576e+00 1.9507041729053867e-01 8.3876200953256745e+00 0 0 0
218 1 1.1134693576228566e+01 2.5736568467367532e-01 5.7526638266711911e+00 0 0 0
219 1 9.6477280948446360e+00 1.5251998478315976e+00 7.0653266580675114e+00 0 0 0
204 1 1.4553096722333678e-01 3.0824009222122695e+00 8.3986486738177426e+00 0 0 0
245 1 1.6479358593907401e+00 4.4137913162250060e+00 7.0241332937892729e+00 0 0 0
212 1 5.8575558823090814e+00 3.0850369291822575e+00 8.3285523792654779e+00 0 0 0
216 1 8.4354005804435559e+00 2.9736559169244434e+00 5.6900234978221391e+00 0 0 0
253 1 7.1025758089194486e+00 4.4178528008890714e+00 6.9184993531177712e+00 0 0 0
261 1 1.2431964786607004e+01 4.3327593862654341e+00 7.1847743303767002e+00 0 0 0
220 1 1.1092543570148614e+01 2.8871144357016330e+00 8.3686808416556993e+00 0 0 0
244 1 3.3845746973704982e-01 8.2881306713847422e+00 8.3557716160290365e+00 0 0 0
246 1 3.1372950914366937e+00 5.7391001896577709e+00 8.4125340666666482e+00 0 0 0
251 1 4.4705305167291236e+00 7.0704816110489395e+00 6.9695191367147240e+00 0 0 0
254 1 8.4644790079981451e+00 5.6999552389524055e+00 8.3397829087741542e+00 0 0 0
252 1 5.7541655076812601e+00 8.4905498951862040e+00 8.4100855480426127e+00 0 0 0
258 1 1.1235091915871996e+01 5.6429829484259413e+00 5.5741600832268956e+00 0 0 0
259 1 1.0029352983828163e+01 7.1054704253668763e+00 7.1151694111088801e+00 0 0 0
260 1 1.1217337222992281e+01 8.5008579165612819e+00 8.5414515234130928e+00 0 0 0
285 1 1.5848502084298062e+00 9.8036121179671838e+00 7.0254447385263816e+00 0 0 0
286 1 2.9463032464542112e+00 1.1174899665227976e+01 8.3314070179106690e+00 0 0 0
290 1 5.6738650958189751e+00 1.1098054787622983e+01 5.6984927672096015e+00 0 0 0
293 1 6.9727682684162549e+00 9.8906914143414149e+00 7.0554095014018028e+00 0 0 0
294 1 8.4722734044829533e+00 1.1168392003442591e+01 8.4738127880256933e+00 0 0 0
498 1 1.0993989691426700e+01 1.1224580713979414e+01 1.1122317966428529e+01 0 0 0
407 1 1.4858342123851722e+00 1.6411479452159763e+00 9.9140528697655856e+00 0 0 0
402 1 9.6464508269265670e-02 2.8596721860603841e-01 1.1254323582651415e+01 0 0 0
410 1 5.6828361299227135e+00 1.0725498999674804e-01 1.1039620729539738e+01 0 0 0
415 1 7.0023981296245044e+00 1.4979092694933753e+00 9.6638103368539046e+00 0 0 0
497 1 9.7256796928638778e+00 9.7985894762184902e+00 9.7276310410520548e+00 0 0 0
419 1 9.7488514347994908e+00 1.5770542654337139e+00 1.2398101898573929e+01 0 0 0
418 1 1.1272639382629359e+01 2.3874682435101358e-01 1.1200316843696434e+01 0 0 0
101 1 1.2410002456190337e+01 9.8144025780858488e+00 1.6144243141609667e+00 0 0 0
495 1 6.9966107339035304e+00 1.2453591959465564e+01 9.6630123496448501e+00 0 0 0
291 1 4.3324011338836321e+00 1.2485857125265460e+01 6.9141863254829294e+00 0 0 0
442 1 2.5839413164466818e-01 5.5873066628964487e+00 1.1188452563461066e+01 0 0 0
408 1 2.9606870625365751e+00 2.9531266009906214e+00 1.1107515973896856e+01 0 0 0
449 1 4.5144261250008482e+00 4.3860642134042864e+00 9.7591147142558814e+00 0 0 0
416 1 8.2664979483118604e+00 2.8023729592899609e+00 1.1135401238882899e+01 0 0 0
5 1 1.7510831061910932e+00 -1.0076345959598676e+00 1.5132033196360826e+00 0 0 0
458 1 1.1278734555071264e+01 5.6875606596874357e+00 1.1049046040789976e+01 0 0 0
457 1 9.7807186803047159e+00 4.2274459601723793e+00 9.8107294024000904e+00 0 0 0
489 1 4.3175158722146962e+00 9.7999060272518790e+00 9.7161331548022289e+00 0 0 0
447 1 1.6337160801468111e+00 6.9101114792765825e+00 9.7752223725434160e+00 0 0 0
448 1 3.0264040065531552e+00 8.2702536186992397e+00 1.1140629757397376e+01 0 0 0
450 1 5.7245922829132780e+00 5.6879286659197765e+00 1.1199316474933696e+01 0 0 0
456 1 8.4400628428357436e+00 8.3936327140821927e+00 1.1062259885598543e+01 0 0 0
455 1 7.1646264342551254e+00 7.0926028578096991e+00 9.6667487140290120e+00 0 0 0
459 1 9.8057663658550744e+00 7.0160981615442815e+00 1.2470584562463184e+01 0 0 0
490 1 5.6620109385591011e+00 1.1218587062191313e+01 1.1096887018311081e+01 0 0 0
487 1 1.6257130862740354e+00 1.2324759163244558e+01 9.8305910505777749e+00 0 0 0
482 1 2.5474045256384303e-01 1.0913220906213207e+01 1.1105522392058921e+01 0 0 0
485 1 1.6386399646192265e+00 9.6097980477723066e+00 1.2444133674698943e+01 0 0 0
3 1 -1.0128936911006114e+00 1.4957046572245389e+00 1.7060617161595433e+00 0 0 0
91 1 4.3648126065578960e+00 1.2371170012002722e+01 1.6889101759566896e+00 0 0 0
97 1 9.8724470407526113e+00 9.8338048009454688e+00 -1.0618710546605428e+00 0 0 0
411 1 4.2795732316729822e+00 1.4814124341361263e+00 1.2375928039821622e+01 0 0 0
493 1 7.0583478884699966e+00 9.7776219783338387e+00 1.2499843382517160e+01 0 0 0
9 1 4.3762310099521589e+00 -1.0930837925957040e+00 -1.0436267877400915e+00 0 0 0
55 1 7.1214755382501744e+00 7.0822859533303841e+00 -9.9861952266340026e-01 0 0 0
607 1 1.6441749734868882e+00 1.8475837569371829e+00 1.5235538576707565e+01 0 0 0
901 1 1.2370318212372151e+01 9.7379790128423842e+00 2.3440729981374272e+01 0 0 0
703 1 1.2305940425818450e+01 1.2433800744456082e+01 1.5397150466980143e+01 0 0 0
406 1 2.9467569804803486e+00 3.2719067051741968e-01 1.3860239296444014e+01 0 0 0
601 1 -9.0031456560749845e-01 -1.0765901933568429e+00 1.5248261213877791e+01 0 0 0
414 1 8.5193603389060115e+00 1.0020931795662143e-01 1.3810604645150276e+01 0 0 0
615 1 7.1462540487651669e+00 1.4768000541538897e+00 1.5207510155298339e+01 0 0 0
843 1 -1.0859459593743033e+00 7.1592378177839855e+00 2.3466081307234134e+01 0 0 0
617 1 9.9546019336053391e+00 -1.0106590408961438e+00 1.5226965380362438e+01 0 0 0
894 1 8.4875402639780262e+00 1.1262379242995141e+01 2.4735035575793276e+01 0 0 0
404 1 2.1285163790721134e-01 3.0897605934509760e+00 1.3838696591301028e+01 0 0 0
649 1 4.4713787318518881e+00 4.2963880284343183e+00 1.5278107682070035e+01 0 0 0
412 1 5.5270205664256906e+00 2.7848610259997799e+00 1.3777399304829279e+01 0 0 0
454 1 8.2724326087690105e+00 5.7197162302421836e+00 1.3780757221767615e+01 0 0 0
657 1 9.6289123936734544e+00 4.4734029690211257e+00 1.5175843076498769e+01 0 0 0
420 1 1.1009352858618259e+01 3.0986734720762015e+00 1.3698862935204300e+01 0 0 0
461 1 1.2439914338757585e+01 4.4221640271746949e+00 1.2595453129685479e+01 0 0 0
444 1 1.9234302582986312e-01 8.2195669584259186e+00 1.3831595236236147e+01 0 0 0
647 1 1.6780311162914312e+00 7.0306105285407012e+00 1.5342842450412894e+01 0 0 0
446 1 3.0500268912580442e+00 5.6511258027704176e+00 1.4010646038513382e+01 0 0 0
451 1 4.3804598440636271e+00 7.0158035846217413e+00 1.2533740345302132e+01 0 0 0
452 1 5.6054125152849954e+00 8.4704039109397797e+00 1.3919078829878213e+01 0 0 0
655 1 6.9086547473182236e+00 7.0463986735117867e+00 1.5265602318372789e+01 0 0 0
460 1 1.1082859911887066e+01 8.4922120006695572e+00 1.3902463343639317e+01 0 0 0
893 1 7.1538975121356039e+00 9.7205998453493105e+00 2.3438709117186914e+01 0 0 0
689 1 4.3318034734706474e+00 9.7901640992666454e+00 1.5168803347218978e+01 0 0 0
486 1 2.9835914032656845e+00 1.1050369501992920e+01 1.3829786296647475e+01 0 0 0
494 1 8.3434164732226730e+00 1.1182283717937889e+01 1.3930818570832804e+01 0 0 0
805 1 1.7556051061477529e+00 -1.0391221602733403e+00 2.3353828225187709e+01 0 0 0
697 1 9.5547551799778354e+00 9.6669188154770076e+00 1.5211434745954646e+01 0 0 0
602 1 3.1450860818851750e-01 3.9457039273530004e-01 1.6752152271601233e+01 0 0 0
823 1 1.2474278111892124e+01 1.6565857743788333e+00 2.0655238970759203e+01 0 0 0
611 1 4.4216071002306272e+00 1.4883937338157058e+00 1.7933341237893465e+01 0 0 0
610 1 5.6190829025201028e+00 1.5945610219271450e-01 1.6467741396871993e+01 0 0 0
606 1 2.9434790815962835e+00 2.8755207518246872e-01 1.9304822488709640e+01 0 0 0
661 1 1.2389908612336443e+01 4.3346241692159140e+00 1.7897708902286929e+01 0 0 0
618 1 1.1187850785614167e+01 5.1517510702693214e-01 1.6592484321096581e+01 0 0 0
619 1 9.7526460810607816e+00 1.6987769737359444e+00 1.7945116587133096e+01 0 0 0
645 1 1.5879165032287577e+00 4.3719007075784964e+00 1.8005893222291338e+01 0 0 0
604 1 2.9548849404762179e-01 2.9587770151879127e+00 1.9474791195207310e+01 0 0 0
608 1 2.9466495616531216e+00 2.9867448057706203e+00 1.6665919788184013e+01 0 0 0
646 1 3.0076533022720482e+00 5.7443714430139963e+00 1.9486461537587207e+01 0 0 0
653 1 7.0699011485915575e+00 4.2416666083337935e+00 1.8069774426992044e+01 0 0 0
616 1 8.3882672570241681e+00 3.0027113965147558e+00 1.6570842421751184e+01 0 0 0
612 1 5.5954306283552011e+00 2.9418465370590048e+00 1.9419311287291826e+01 0 0 0
620 1 1.1103084876826857e+01 3.1097910044064117e+00 1.9298606488627765e+01 0 0 0
642 1 1.9454200494551130e-01 5.6612232920460919e+00 1.6580688655612651e+01 0 0 0
886 1 3.0984239631136847e+00 1.1015835268668514e+01 2.4800960915195674e+01 0 0 0
650 1 5.6167284525098635e+00 5.6939729445103096e+00 1.6813130175856902e+01 0 0 0
651 1 4.3526751094274223e+00 7.0510683509457630e+00 1.8030237341792660e+01 0 0 0
648 1 3.0059288687013783e+00 8.4860311617393887e+00 1.6527824335795714e+01 0 0 0
656 1 8.3071412133744271e+00 8.3680638188422165e+00 1.6544183585023330e+01 0 0 0
654 1 8.4736761763851671e+00 5.8113558088076571e+00 1.9241250657149102e+01 0 0 0
652 1 5.7433767433196161e+00 8.4330610967627013e+00 1.9231297339267030e+01 0 0 0
658 1 1.1100620292062573e+01 5.7878907215007729e+00 1.6591637523306659e+01 0 0 0
659 1 9.7176055484782822e+00 7.1954457790487272e+00 1.7897879271093021e+01 0 0 0
660 1 1.1206495730853337e+01 8.4602034605810594e+00 1.9430105081049472e+01 0 0 0
682 1 1.5983187743247662e-01 1.1035255178364618e+01 1.6612900125338847e+01 0 0 0
685 1 1.6749504779562856e+00 9.8481568652373763e+00 1.8015006146458326e+01 0 0 0
891 1 4.4323887319360349e+00 1.2457382573754009e+01 2.3392098060574632e+01 0 0 0
686 1 3.0417214760047200e+00 1.1122201716095242e+01 1.9396122546847344e+01 0 0 0
603 1 -1.0816781370464916e+00 1.6380019613913999e+00 1.8065711389949861e+01 0 0 0
690 1 5.6666183109079036e+00 1.1088553433481726e+01 1.6565001872572314e+01 0 0 0
693 1 7.1516026589329247e+00 9.7640928701470973e+00 1.7934270173644517e+01 0 0 0
698 1 1.0844101003027497e+01 1.1028115334607305e+01 1.6716664671631950e+01 0 0 0
701 1 1.2435703345471978e+01 9.7982362763217523e+00 1.8017133484636531e+01 0 0 0
802 1 2.9053798413574222e-01 3.0635723242401575e-01 2.2080936115882778e+01 0 0 0
807 1 1.7302611450751264e+00 1.5537655385458922e+00 2.0573003581315007e+01 0 0 0
810 1 5.7404879983732426e+00 4.0245416010605672e-01 2.2041466305921208e+01 0 0 0
809 1 4.3791898799904301e+00 -9.9954960791515823e-01 2.0653008055641227e+01 0 0 0
614 1 8.3926551109247729e+00 4.3300571277016231e-01 1.9242778112306741e+01 0 0 0
815 1 7.0588478682280424e+00 1.6578217755358042e+00 2.0678227114673017e+01 0 0 0
817 1 9.7094493985667238e+00 -1.0680705647151927e+00 2.0448598053140294e+01 0 0 0
818 1 1.0995869193494535e+01 2.8979551720448093e-01 2.1854817494113639e+01 0 0 0
885 1 1.6560381712901970e+00 9.7760719346890141e+00 2.3304793562816446e+01 0 0 0
842 1 1.0039039416250253e-01 5.8130220432056250e+00 2.1916690273779142e+01 0 0 0
849 1 4.2600972937007082e+00 4.2732013210518316e+00 2.0930281326801992e+01 0 0 0
808 1 2.7999140057259884e+00 2.9306633453288229e+00 2.2080354469754855e+01 0 0 0
816 1 8.3817366639813233e+00 3.0340473696250014e+00 2.2049348683401419e+01 0 0 0
857 1 9.7120275352369649e+00 4.4198319231635130e+00 2.0618195557986887e+01 0 0 0
858 1 1.1184489609641172e+01 5.6619702627744877e+00 2.2075857561794642e+01 0 0 0
644 1 2.0149462961937589e-01 8.4173507215981953e+00 1.9418260101158754e+01 0 0 0
847 1 1.6842643455282755e+00 7.2370659473659185e+00 2.0758529110383087e+01 0 0 0
848 1 3.1348121513074538e+00 8.4330675820596017e+00 2.2063819061101402e+01 0 0 0
850 1 5.7850719265202466e+00 5.8234961390329838e+00 2.2122634326614506e+01 0 0 0
855 1 7.1416759747901750e+00 7.1276856369514752e+00 2.0689073280176846e+01 0 0 0
856 1 8.5055857630311280e+00 8.4601841386799830e+00 2.2061118068053034e+01 0 0 0
63 1 1.2467825949802000e+01 7.2000823115333068e+00 2.6074073544578237e+01 0 0 -1
859 1 9.8107127930915254e+00 7.0570022963759165e+00 2.3464455770863932e+01 0 0 0
882 1 2.6081580884349626e-01 1.1186892024908278e+01 2.2057341165198011e+01 0 0 0
889 1 4.4819834620089276e+00 9.7975944572134601e+00 2.0696551175871033e+01 0 0 0
890 1 5.8186739517024240e+00 1.1191808409237270e+01 2.2082744491253642e+01 0 0 0
621 1 1.2491452202450702e+01 -1.0435891208745747e+00 1.7914755673511657e+01 0 0 0
694 1 8.4163459469295603e+00 1.1137842206703439e+01 1.9364956006667107e+01 0 0 0
897 1 9.8004111769415285e+00 9.8912594857242002e+00 2.0659057511624599e+01 0 0 0
898 1 1.1221628246786590e+01 1.1250690867760316e+01 2.1996815513430352e+01 0 0 0
803 1 -1.0558019861424153e+00 1.5901204314955237e+00 2.3537986573775484e+01 0 0 0
801 1 -9.7644082493426432e-01 -1.0611596398722014e+00 2.0646949129840447e+01 0 0 0
811 1 4.3534401992718195e+00 1.6659838272638756e+00 2.3462026308333243e+01 0 0 0
806 1 3.0541956196196884e+00 2.1025230313460072e-01 2.4742609069423001e+01 0 0 0
814 1 8.4648105519725796e+00 2.8155957443736318e-01 2.4715030398067061e+01 0 0 0
15 1 7.0625599538338815e+00 1.5297002211117614e+00 2.6088574941897182e+01 0 0 -1
813 1 7.0663259696515217e+00 -9.4526176631238124e-01 2.3409153022042219e+01 0 0 0
819 1 9.7923747827077161e+00 1.5675554453151412e+00 2.3290266506240545e+01 0 0 0
845 1 1.5477569067870054e+00 4.4181331548411045e+00 2.3371257557526725e+01 0 0 0
804 1 2.2644138632979760e-01 3.0489741294855515e+00 2.4889644121803020e+01 0 0 0
846 1 3.0408240640007729e+00 5.7672677428986585e+00 2.4774746292125144e+01 0 0 0
49 1 4.4222207827075062e+00 4.4286709287238475e+00 2.6092033374668748e+01 0 0 -1
812 1 5.6788123342410373e+00 3.0265443025051746e+00 2.4727796724859559e+01 0 0 0
853 1 7.1183303486466345e+00 4.3963326907731037e+00 2.3376399810075121e+01 0 0 0
860 1 1.1028317381577008e+01 8.4724132873593465e+00 2.4881065200550335e+01 0 0 0
820 1 1.1269511685949436e+01 2.8258011659485609e+00 2.4674740310677656e+01 0 0 0
844 1 4.1687924084355671e-01 8.4405094522445712e+00 2.4865348226517284e+01 0 0 0
851 1 4.4236931467441156e+00 7.1157611953455717e+00 2.3472318809320988e+01 0 0 0
852 1 5.8169459181986722e+00 8.4574441624388541e+00 2.4844207638600658e+01 0 0 0
854 1 8.4109547689734772e+00 5.7059261593755153e+00 2.4735471852773490e+01 0 0 0
887 1 1.6630574981868267e+00 1.2492393853657514e+01 2.0634919166973663e+01 0 0 0
687 1 1.5247601609045092e+00 1.2367585652828922e+01 1.5276855771958429e+01 0 0 0
695 1 7.0144654239362811e+00 1.2493929848399464e+01 1.5172939608568097e+01 0 0 0
7 1 1.7967288927034506e+00 1.6479456878833920e+00 2.6086727777271559e+01 0 0 -1
501 1 1.2399974059740565e+01 9.9000233407647968e+00 1.2529465053002740e+01 0 0 0
87 1 1.5832802065385343e+00 1.2498373490682775e+01 2.6021088141716767e+01 0 0 -1
445 1 1.6567828929707158e+00 4.3754866674812840e+00 1.2523284829108251e+01 0 0 0
453 1 7.0027530384056620e+00 4.1722659968516469e+00 1.2511497961593605e+01 0 0 0
417 1 9.8887300784120740e+00 2.6087110218329723e+01 9.6884026853382306e+00 0 -1 0
125 1 1.5421321308189699e+00 1.5269332343397144e+01 1.5791666543160066e+00 0 0 0
88 1 2.9099846732702828e+00 1.3865161226660502e+01 3.0940837713925040e-01 0 0 0
543 1 1.2337003972365613e+01 1.7879342644683224e+01 9.8762565418536852e+00 0 0 0
133 1 7.1511737301728813e+00 1.5183861565451302e+01 1.7730965694739911e+00 0 0 0
96 1 8.3787414074621100e+00 1.3851721063131398e+01 2.7260070827085620e-01 0 0 0
122 1 1.0421361600024971e-01 1.6607275307213467e+01 2.2377786361981061e-01 0 0 0
123 1 -1.0687701704158461e+00 1.7935922308886820e+01 1.6623377332630129e+00 0 0 0
131 1 4.4297085636185347e+00 1.8018319632076466e+01 1.6391537998951480e+00 0 0 0
128 1 2.9593003580544286e+00 1.9257344435398334e+01 1.3140826129004238e-01 0 0 0
130 1 5.8873150187874215e+00 1.6633124406809380e+01 2.8842922315995295e-01 0 0 0
135 1 7.2078965563025053e+00 1.7976761562510465e+01 -1.0534355059640996e+00 0 0 0
138 1 1.1146256693146849e+01 1.6639561384843031e+01 3.7693130826996557e-01 0 0 0
139 1 9.7568244066967011e+00 1.8045818195958493e+01 1.7784661283423351e+00 0 0 0
162 1 3.4607193918843249e-01 2.2060130570793799e+01 2.9450571025131767e-01 0 0 0
165 1 1.6362639196781821e+00 2.0575719943023074e+01 1.6068408470249369e+00 0 0 0
209 1 4.4656501346264665e+00 2.6083072148706830e+01 4.1693214212494834e+00 0 -1 0
170 1 5.6048528042800072e+00 2.1968429284900818e+01 8.2036500772080106e-02 0 0 0
173 1 7.1433181926765199e+00 2.0834481976677115e+01 1.5318908309916273e+00 0 0 0
136 1 8.5878206312085190e+00 1.9333673300312789e+01 2.4982153258798331e-01 0 0 0
178 1 1.1201349056328947e+01 2.1937278317544308e+01 2.6603665895166756e-01 0 0 0
181 1 1.2460822126228408e+01 2.0618850980186959e+01 1.8267814094159283e+00 0 0 0
201 1 -1.0236248259911847e+00 2.6078668973727293e+01 4.3020445354279850e+00 0 -1 0
163 1 -1.0672117021187844e+00 2.3428005948442518e+01 1.7365825933234522e+00 0 0 0
167 1 1.5860194541781274e+00 2.3478358934315260e+01 -1.0967338596787402e+00 0 0 0
321 1 -1.0904000012877120e+00 1.5147897171956521e+01 4.2555483107740004e+00 0 0 0
171 1 4.3112248008992271e+00 2.3296250456225248e+01 1.5399810865057850e+00 0 0 0
168 1 2.9998678365896101e+00 2.4777269174122029e+01 2.0382528061122929e-01 0 0 0
176 1 8.3479669164305506e+00 2.4697342186969070e+01 2.7413462152460877e-01 0 0 0
13 1 7.0973950285294123e+00 2.6028985151967660e+01 1.7838573530242658e+00 0 -1 0
179 1 9.7250612635295308e+00 2.3323261416376067e+01 1.5247874324597637e+00 0 0 0
84 1 2.7949933322187565e-01 1.3837353038165546e+01 2.8214046125128234e+00 0 0 0
329 1 4.4575480389006286e+00 1.5193872301263669e+01 4.3057470999924732e+00 0 0 0
288 1 2.7997369478407581e+00 1.3940564962224995e+01 5.5278311048217166e+00 0 0 0
92 1 5.7641064265399287e+00 1.3730318214926839e+01 2.8880483209168024e+00 0 0 0
295 1 7.1153117533558401e+00 1.2508464034332812e+01 4.3766982400866707e+00 0 0 0
296 1 8.4244219654438890e+00 1.3914671914708730e+01 5.7607559391464163e+00 0 0 0
337 1 9.7454665954081872e+00 1.5250118484082810e+01 4.3727335598084736e+00 0 0 0
100 1 1.1156726960682469e+01 1.3712507605216768e+01 3.0072698493496044e+00 0 0 0
327 1 1.5149213081024608e+00 1.7893989285357762e+01 4.3565544568522174e+00 0 0 0
126 1 3.0276018411730390e+00 1.6619163713770785e+01 2.9647748582999531e+00 0 0 0
132 1 5.7012778497367407e+00 1.9407879101210593e+01 2.9817823948299518e+00 0 0 0
330 1 5.7244521569283542e+00 1.6653097685691964e+01 5.7463500208837806e+00 0 0 0
134 1 8.3649497345251653e+00 1.6711625028000963e+01 2.9861588979297444e+00 0 0 0
335 1 7.0912545130655120e+00 1.8017446824318821e+01 4.3194047321539806e+00 0 0 0
336 1 8.3600765501518630e+00 1.9126148799369641e+01 5.7708986850498638e+00 0 0 0
140 1 1.1146576449802247e+01 1.9346260603163362e+01 3.1533803309986310e+00 0 0 0
575 1 7.0712474792257565e+00 2.3310182445999114e+01 9.7804212755684219e+00 0 0 0
124 1 2.5693816466775310e-01 1.9343245272826824e+01 3.0166014174784195e+00 0 0 0
361 1 -1.0642363276817661e+00 2.0711846608537073e+01 4.4275387846674343e+00 0 0 0
369 1 4.3887931799999311e+00 2.0599311097035216e+01 4.4071151607521344e+00 0 0 0
166 1 2.9500548799253496e+00 2.1824423327371111e+01 3.0483551964709035e+00 0 0 0
174 1 8.4234941380500228e+00 2.1996392152159700e+01 2.9862902636785940e+00 0 0 0
377 1 9.7187638313505076e+00 2.0615222014815892e+01 4.5171700415925615e+00 0 0 0
164 1 5.0109236399743007e-01 2.4709111549050618e+01 2.9389229616982480e+00 0 0 0
367 1 1.6856761385914216e+00 2.3253899595206629e+01 4.3784301357057336e+00 0 0 0
368 1 2.9318954493057827e+00 2.4785514883255825e+01 5.6314392691357753e+00 0 0 0
172 1 5.6899109239836960e+00 2.4679997277022551e+01 2.9272916791435364e+00 0 0 0
375 1 6.9502260537641991e+00 2.3397500225935680e+01 4.2404076113337750e+00 0 0 0
376 1 8.3496912122352054e+00 2.4653224177755476e+01 5.6368686469459295e+00 0 0 0
217 1 9.8493410996019790e+00 2.6028853329854648e+01 4.3512878667828074e+00 0 -1 0
576 1 8.4569736913410303e+00 2.4551192972435363e+01 1.1116287620518591e+01 0 0 0
180 1 1.1134900525521521e+01 2.4529077550589179e+01 2.9948663531337205e+00 0 0 0
284 1 3.5231731213621609e-01 1.3758042430775903e+01 8.5243323820080619e+00 0 0 0
325 1 1.6530028930120177e+00 1.5317711502721785e+01 6.9733077600714353e+00 0 0 0
21 1 1.2469510407718941e+01 2.6060229350907292e+01 1.6879826720950506e+00 0 -1 0
292 1 5.6937533630393435e+00 1.3854969839269756e+01 8.3562332168341129e+00 0 0 0
333 1 7.0414410623412156e+00 1.5173499779918879e+01 7.0827176643642211e+00 0 0 0
99 1 9.6425229521648657e+00 1.2514435541907167e+01 1.6147344344865260e+00 0 0 0
300 1 1.1145318637878596e+01 1.3777259269272053e+01 8.4259652273594323e+00 0 0 0
322 1 1.4811330042989948e-01 1.6505349791154714e+01 5.6809145005370381e+00 0 0 0
324 1 2.6397061258014459e-01 1.9345248274831818e+01 8.3552454643450069e+00 0 0 0
328 1 2.9281354351147773e+00 1.9183065737873026e+01 5.6481457171135112e+00 0 0 0
331 1 4.2623413860718395e+00 1.7952623242098582e+01 7.1078418520322089e+00 0 0 0
326 1 2.8892866598482478e+00 1.6591241312008581e+01 8.4595621823800702e+00 0 0 0
334 1 8.5433656538395208e+00 1.6642340537104978e+01 8.4550586066823428e+00 0 0 0
332 1 5.6014768181938752e+00 1.9297335313081952e+01 8.5093768376675829e+00 0 0 0
338 1 1.1215848873660972e+01 1.6492347199314278e+01 5.7733331069012026e+00 0 0 0
339 1 9.9349499626106805e+00 1.7849961120757097e+01 7.1401304191266721e+00 0 0 0
340 1 1.1158102718117554e+01 1.9367066170567789e+01 8.4894673267819662e+00 0 0 0
362 1 2.3156962774057629e-01 2.2059627646273899e+01 5.8037387969799648e+00 0 0 0
365 1 1.6555979363256470e+00 2.0582248793780007e+01 7.0095492646860462e+00 0 0 0
370 1 5.6777816691155731e+00 2.2006029941031468e+01 5.6823129731193260e+00 0 0 0
366 1 2.9808032337845991e+00 2.1916606380850858e+01 8.3393917230556163e+00 0 0 0
373 1 7.0458472337902434e+00 2.0591829089347012e+01 7.1062515447379901e+00 0 0 0
374 1 8.3555494435839268e+00 2.2041384191422932e+01 8.3594977966501176e+00 0 0 0
378 1 1.1384932303700861e+01 2.2061718016992895e+01 5.7777319052953233e+00 0 0 0
571 1 4.2692821870276507e+00 2.3362717370831071e+01 1.2473227784363354e+01 0 0 0
567 1 1.7468379366532412e+00 2.3373561345891186e+01 9.6777309497659054e+00 0 0 0
364 1 3.7305546731790362e-01 2.4826217865789943e+01 8.3742383956728244e+00 0 0 0
371 1 4.2327266808028030e+00 2.3370002755000776e+01 6.8979254880495615e+00 0 0 0
372 1 5.6082583450232812e+00 2.4670689095018670e+01 8.3628506217370315e+00 0 0 0
213 1 7.0794056965025733e+00 2.5949140918690723e+01 7.0392482526719720e+00 0 -1 0
379 1 9.8168376406041542e+00 2.3383284197029131e+01 6.9386651662861523e+00 0 0 0
380 1 1.1253908769531025e+01 2.4784858489972486e+01 8.2925894304397918e+00 0 0 0
568 1 2.9159403478643342e+00 2.4795257648991910e+01 1.1181498290858071e+01 0 0 0
401 1 -1.0523342546704451e+00 2.6074473306916204e+01 9.7866575856670206e+00 0 -1 0
529 1 4.3397706461128704e+00 1.5330229066049881e+01 9.7588630856473948e+00 0 0 0
488 1 2.9514591105736927e+00 1.3863949893389373e+01 1.1137973899185900e+01 0 0 0
499 1 9.6702706236171689e+00 1.2589910282127885e+01 1.2479017814671238e+01 0 0 0
496 1 8.2629453820200318e+00 1.3803245585064815e+01 1.1061830610515736e+01 0 0 0
578 1 1.1129888345263968e+01 2.2026037582883617e+01 1.1126628681190065e+01 0 0 0
537 1 9.6647449490709025e+00 1.5182531431170215e+01 9.8053016635819574e+00 0 0 0
522 1 2.3305569474474419e-01 1.6496715163786675e+01 1.1158174539063054e+01 0 0 0
527 1 1.6392262190774907e+00 1.7929478814403776e+01 9.7868197793568221e+00 0 0 0
531 1 4.2834569038701851e+00 1.7887032187394780e+01 1.2473764686515068e+01 0 0 0
530 1 5.7550164670444968e+00 1.6600053216924341e+01 1.1114895948254082e+01 0 0 0
535 1 7.0477627658858619e+00 1.7787037895558953e+01 9.7722545522301782e+00 0 0 0
538 1 1.0995225783189882e+01 1.6544466653708064e+01 1.1396661042998813e+01 0 0 0
577 1 9.7435987038741452e+00 2.0749763389946683e+01 9.7798518453298779e+00 0 0 0
409 1 4.2087822094974046e+00 2.6071551202861446e+01 9.6766624229150988e+00 0 -1 0
562 1 2.8674089242337036e-01 2.2010344432344851e+01 1.1059886993858461e+01 0 0 0
570 1 5.5890470984509202e+00 2.2074287321833967e+01 1.1158407461796799e+01 0 0 0
569 1 4.3071698931233842e+00 2.0683134302373919e+01 9.7783078696195531e+00 0 0 0
528 1 2.9584917925821741e+00 1.9340845155471232e+01 1.1165588526475375e+01 0 0 0
536 1 8.3818524474515730e+00 1.9331099699020726e+01 1.1054211273914152e+01 0 0 0
17 1 9.7528785152050208e+00 2.6062571055912908e+01 -1.0479474494002829e+00 0 -1 0
175 1 6.9993323146009878e+00 2.3429096070207184e+01 -1.0702120364288739e+00 0 0 0
129 1 4.4297034766729944e+00 1.5335551835271891e+01 -1.0447047584818137e+00 0 0 0