LAMMPS data file via write_data, version 30 Jul 2016, timestep = 10000

3000 atoms
1 atom types

-1.1037168687938550e+00 2.6103716868793796e+01 xlo xhi
-3.3111506063815597e+00 7.8311150606381062e+01 ylo yhi
-1.1037168687938550e+00 2.6103716868793796e+01 zlo zhi

Masses

1 28.0855

Atoms # atomic

2 1 3.3067650323322939e-01 -1.8677971613740452e+00 2.3613296115947865e-01 0 0 0
3 1 2.6010069272004451e+01 -6.0561182863310048e-01 1.4062715140306827e+00 -1 0 0
5 1 1.7045129284198455e+00 -3.1930227546427830e+00 1.6062765669894443e+00 0 0 0
1205 1 1.6379200022007623e+00 -3.1701712301240406e+00 1.2413564353375010e+01 0 0 0
11 1 4.3798021598669452e+00 -3.2988658102737811e-01 1.4141522223238043e+00 0 0 0
10 1 5.5537914117406464e+00 -2.0002516297016144e+00 1.2051680677231848e-01 0 0 0
1201 1 -1.0263850576065860e+00 -3.1465064951337212e+00 9.6471507294617762e+00 0 0 0
19 1 9.7946111992910350e+00 -6.3878667268526268e-01 1.4233580089752287e+00 0 0 0
18 1 1.1212859239902579e+01 -1.8833629305045136e+00 3.8193118144119867e-02 0 0 0
621 1 1.2548943934253801e+01 -3.2345670251865073e+00 6.8968930135304003e+00 0 0 0
27 1 1.5225431209025738e+01 -4.5348096269198984e-01 1.4515218285601061e+00 0 0 0
26 1 1.6522702790365187e+01 -1.9740334682195335e+00 1.7286838288039894e-01 0 0 0
613 1 7.0076006136877611e+00 -3.1170891441195749e+00 7.0004478425198400e+00 0 0 0
34 1 2.1962563614211369e+01 -1.9601871935043946e+00 1.9035693689879327e-01 0 0 0
35 1 2.0568787680591697e+01 -5.6370245987944123e-01 1.5289667061713592e+00 0 0 0
45 1 1.5821831174476264e+00 2.1835565137368551e+00 1.5870399216725846e+00 0 0 0
8 1 2.8743116146153915e+00 9.1799643923991037e-01 1.8929906774367336e-01 0 0 0
53 1 7.1526487562533676e+00 2.1959339242505385e+00 1.4564835914129290e+00 0 0 0
16 1 8.2035752297090170e+00 6.3968684543396503e-01 6.1991132983671400e-03 0 0 0
61 1 1.2389406768250888e+01 2.0802318006892140e+00 1.5320060834956826e+00 0 0 0
24 1 1.3733438955817522e+01 7.7743685820728403e-01 1.5504037906383486e-01 0 0 0
69 1 1.8052060054230125e+01 2.1064946059298473e+00 1.5451879407619575e+00 0 0 0
32 1 1.9320183338162099e+01 8.0041980364068011e-01 1.2176891321868259e-01 0 0 0
605 1 1.8238634545237962e+00 -3.0892838478618501e+00 6.8582014112629404e+00 0 0 0
77 1 2.3397235951863024e+01 2.1269473040634592e+00 1.5617414690972762e+00 0 0 0
40 1 2.4712511741992376e+01 7.8566054119058437e-01 7.8129603147750248e-02 0 0 0
42 1 3.4785794683432125e-01 3.4827310209348261e+00 1.9215635356382871e-01 0 0 0
1225 1 1.5362647314362178e+01 -3.2246123425373554e+00 9.6677550186794434e+00 0 0 0
51 1 4.4870253355115564e+00 4.8738512863333376e+00 1.6355005668114246e+00 0 0 0
50 1 5.7055740852716212e+00 3.5808854947603685e+00 2.5047932328269989e-01 0 0 0
59 1 9.6576853605968225e+00 4.9482333583320219e+00 1.7716124899360257e+00 0 0 0
58 1 1.0920786652876984e+01 3.5518519256522390e+00 2.3729920770463839e-01 0 0 0
67 1 1.5311914238688471e+01 4.6293355188640799e+00 1.5186055663720610e+00 0 0 0
66 1 1.6673168235823312e+01 3.4221849321267723e+00 7.4660872995134672e-02 0 0 0
74 1 2.2128312286367702e+01 3.5235328735144469e+00 2.1287513481202239e-01 0 0 0
75 1 2.0726325931440694e+01 4.8307970304930281e+00 1.6043586124092972e+00 0 0 0
43 1 -9.8611655263370679e-01 4.7884563388954193e+00 1.6880951595797087e+00 0 0 0
85 1 1.6311354202881923e+00 7.5470365518251077e+00 1.6316427742117923e+00 0 0 0
48 1 2.9178985757013427e+00 6.2321973619243858e+00 2.7979626506705385e-01 0 0 0
633 1 2.0702271028038034e+01 -3.1976518828567038e+00 4.3351030995737059e+00 0 0 0
93 1 7.1175712622155700e+00 7.6884016984541974e+00 1.6808214359626696e+00 0 0 0
56 1 8.5092607747778697e+00 6.2820010069641770e+00 2.5302665481672831e-01 0 0 0
64 1 1.3845903339611933e+01 6.2411878149700133e+00 3.9756726680018251e-01 0 0 0
101 1 1.2587555628002789e+01 7.6668682148974714e+00 1.6881723864976537e+00 0 0 0
72 1 1.9285950229942156e+01 6.1108170418263512e+00 1.9349964383730919e-01 0 0 0
109 1 1.8040490664973948e+01 7.6436762369852520e+00 1.5362365533823050e+00 0 0 0
80 1 2.4844915584329399e+01 6.1841089870965451e+00 2.2997415203292010e-01 0 0 0
117 1 2.3433694679424729e+01 7.5530551551395453e+00 1.5128071868963844e+00 0 0 0
82 1 2.8494997760699559e-01 8.8321809784082852e+00 2.4420448480210438e-01 0 0 0
1233 1 2.0591861174354939e+01 -3.3092776780884776e+00 9.6844595994933282e+00 0 0 0
83 1 2.6028920722895670e+01 1.0297488846105386e+01 1.4336917980805675e+00 -1 0 0
91 1 4.2542230385514008e+00 1.0364969233094115e+01 1.5344471224850513e+00 0 0 0
90 1 5.6366622739483736e+00 8.9464630956834821e+00 3.8148599018197271e-01 0 0 0
99 1 9.8089671379550207e+00 1.0296787338561991e+01 1.6871731817434150e+00 0 0 0
98 1 1.1093220510641425e+01 8.8556077983903361e+00 3.2533911740088484e-01 0 0 0
103 1 1.2419392763743645e+01 1.0233230739525725e+01 -1.1006315101735038e+00 0 0 0
106 1 1.6667890747850397e+01 8.9927179582720296e+00 2.1399644100102588e-01 0 0 0
107 1 1.5270245699200034e+01 1.0614476638059694e+01 1.5410158246201158e+00 0 0 0
111 1 1.8053743088368890e+01 1.0218462581963850e+01 -1.0783123653625313e+00 0 0 0
114 1 2.2085439903416660e+01 8.9130989104270242e+00 1.0072441410484959e-01 0 0 0
115 1 2.0770740693329234e+01 1.0236827436008712e+01 1.5061387746993620e+00 0 0 0
125 1 1.5747100892201980e+00 1.2957516974493352e+01 1.4254686927926612e+00 0 0 0
88 1 2.9739168662569426e+00 1.1573692305147349e+01 7.3797777685559535e-02 0 0 0
133 1 6.9441728986671585e+00 1.3070714562002943e+01 1.7139521113819178e+00 0 0 0
96 1 8.4100154539424157e+00 1.1666803195371498e+01 4.1937742373989101e-01 0 0 0
137 1 9.7034467527511037e+00 1.2920289287513855e+01 -1.0070935090189173e+00 0 0 0
141 1 1.2450452602599960e+01 1.3037439361506298e+01 1.5138326218767706e+00 0 0 0
104 1 1.3822312277025148e+01 1.1645252982986678e+01 1.2999587190468351e-01 0 0 0
149 1 1.8110233229507269e+01 1.3053661706205130e+01 1.5452306365118047e+00 0 0 0
112 1 1.9343876180273668e+01 1.1599265921521965e+01 2.0973661138042843e-01 0 0 0
157 1 2.3348861432519577e+01 1.3153766058954661e+01 1.5789957007551387e+00 0 0 0
120 1 2.4735523958585265e+01 1.1812532880377066e+01 -6.3110207634225462e-03 0 0 0
122 1 2.1946885812262487e-01 1.4439116450978261e+01 1.5342326115708704e-01 0 0 0
29 1 1.7904986783400698e+01 -3.2892515874058290e+00 1.4739727097353756e+00 0 0 0
123 1 2.5996454959861040e+01 1.5741424674583815e+01 1.5893765147873236e+00 -1 0 0
131 1 4.3626937148017255e+00 1.5771875810471574e+01 1.6220177758075780e+00 0 0 0
130 1 5.7868679372736640e+00 1.4284081863598301e+01 2.0447344878494442e-01 0 0 0
135 1 7.1010609208775310e+00 1.5706690321749562e+01 -1.0560230223142875e+00 0 0 0
139 1 9.7542191773700271e+00 1.5678556572431031e+01 1.4277583286218787e+00 0 0 0
1360 1 2.4839989903356329e+01 1.6949282500495507e+01 1.1103063624260264e+01 0 0 0
138 1 1.1213826761081515e+01 1.4347652317659671e+01 1.6077556719616198e-01 0 0 0
1344 1 1.3840962206128999e+01 1.7069045755347787e+01 1.1067671551544652e+01 0 0 0
147 1 1.5363667858254844e+01 1.5692455272622036e+01 1.4684020369554980e+00 0 0 0
146 1 1.6683810941982379e+01 1.4395513179723148e+01 1.5603082792886236e-01 0 0 0
154 1 2.2085844349584125e+01 1.4414644510604070e+01 8.6600645104004226e-02 0 0 0
155 1 2.0875193865620346e+01 1.5800582082634454e+01 1.6587495725919279e+00 0 0 0
1323 1 -1.0930906966906235e+00 1.5655832350353643e+01 1.2492935214904479e+01 0 0 0
607 1 1.5961175392901690e+00 -4.2797252251695672e-01 4.1635707322392204e+00 0 0 0
1359 1 2.3389963347856625e+01 1.5790262842704806e+01 9.7878951891108059e+00 0 0 0
6 1 3.0345832303038214e+00 -1.7269434044012000e+00 2.9117263025076223e+00 0 0 0
615 1 7.0994090160199619e+00 -5.2405699473817990e-01 4.1129543978286867e+00 0 0 0
14 1 8.4242784838852423e+00 -1.9702698473792308e+00 2.7115575024112655e+00 0 0 0
22 1 1.3911788915015364e+01 -1.7886556187030695e+00 2.8206965643067807e+00 0 0 0
623 1 1.2588717290896328e+01 -4.9354228833881447e-01 4.1877860077969693e+00 0 0 0
625 1 1.5121809047444229e+01 -3.1767802052035408e+00 4.2471079158078062e+00 0 0 0
631 1 1.7845749186441790e+01 -6.0798834822948378e-01 4.1696599091969739e+00 0 0 0
30 1 1.9294677122163318e+01 -1.8591909019905988e+00 2.8716455945741060e+00 0 0 0
634 1 2.2122495826849239e+01 -1.8906486134900349e+00 5.6878028080006509e+00 0 0 0
38 1 2.4831821064322906e+01 -1.8968338076545719e+00 2.9057356114562665e+00 0 0 0
639 1 2.3413666811661344e+01 -6.1391755273552773e-01 4.2487202354176405e+00 0 0 0
4 1 1.3365548211397887e-01 8.0443959123259279e-01 2.8581473416575984e+00 0 0 0
649 1 4.4385558828995215e+00 2.1981226197293080e+00 4.1390608052061921e+00 0 0 0
608 1 2.9628298482477597e+00 9.7071238846589203e-01 5.5043232583577462e+00 0 0 0
12 1 5.8286209279376608e+00 9.2597346034537698e-01 2.7983170792452841e+00 0 0 0
657 1 9.8231344148727242e+00 2.0458965110490634e+00 4.2254423910269212e+00 0 0 0
616 1 8.3856842382079702e+00 8.4577845548338704e-01 5.6032851688258658e+00 0 0 0
20 1 1.1145837911056246e+01 7.5466733989151658e-01 2.8677367152255369e+00 0 0 0
624 1 1.3913933115876427e+01 8.8640018130851894e-01 5.7267123392811232e+00 0 0 0
665 1 1.5209553458429093e+01 2.1452841923823818e+00 4.3756417758227855e+00 0 0 0
28 1 1.6536252834401882e+01 8.6202165189498625e-01 2.9138473986068338e+00 0 0 0
632 1 1.9344647829110741e+01 7.0574267262501222e-01 5.5709626101298690e+00 0 0 0
673 1 2.0801746153323133e+01 2.0939197464662187e+00 4.1943988061806419e+00 0 0 0
36 1 2.2096398872706800e+01 7.1122895094878513e-01 2.8918635213616737e+00 0 0 0
641 1 2.6077492803463350e+01 2.0713014692942351e+00 4.3184325853120580e+00 -1 0 0
640 1 2.4745552909441329e+01 7.2641470745173153e-01 5.7645623977560811e+00 0 0 0
647 1 1.6570682848725713e+00 4.7927920506297008e+00 4.2505410338462051e+00 0 0 0
642 1 2.2780957259460177e-01 3.4921071402260218e+00 5.5344497878200523e+00 0 0 0
46 1 3.0264043449920974e+00 3.5791907570423613e+00 2.9248042831397822e+00 0 0 0
655 1 7.1706432983107424e+00 4.8851589845187613e+00 4.4760956781377166e+00 0 0 0
650 1 5.6521037780890691e+00 3.6528640117595512e+00 5.6794528933138313e+00 0 0 0
54 1 8.3915764628753102e+00 3.4103149172609100e+00 3.0760820700730553e+00 0 0 0
62 1 1.3877946776283567e+01 3.3707676820000936e+00 2.8821204828031108e+00 0 0 0
663 1 1.2546556880734796e+01 4.8484692542753196e+00 4.2901846406221003e+00 0 0 0
666 1 1.6750049807100829e+01 3.5602475485856244e+00 5.6890186309010886e+00 0 0 0
671 1 1.8043538174983190e+01 4.8865380932167426e+00 4.2578976416131864e+00 0 0 0
70 1 1.9372999664486141e+01 3.4697245276158619e+00 2.9907946883894976e+00 0 0 0
674 1 2.1952488381338490e+01 3.5138102795453050e+00 5.5913934739534703e+00 0 0 0
78 1 2.4848767606428876e+01 3.3791436189918889e+00 2.9722970826079411e+00 0 0 0
679 1 2.3444888786625661e+01 4.8105587520879647e+00 4.2264271945439642e+00 0 0 0
44 1 2.4003232875436192e-01 6.2972302481286686e+00 2.9990548057445330e+00 0 0 0
681 1 -1.0718697473470529e+00 7.5644784892742107e+00 4.3429837398995952e+00 0 0 0
689 1 4.3458580488410838e+00 7.4964677104684529e+00 4.2629734856036521e+00 0 0 0
648 1 3.0002619626991556e+00 6.1596326359538018e+00 5.6345471047925777e+00 0 0 0
52 1 5.8427725742856822e+00 6.1403163230788520e+00 3.0327951978694991e+00 0 0 0
697 1 9.7432731790822622e+00 7.7189992726731473e+00 4.4801499710775881e+00 0 0 0
656 1 8.5755385313871173e+00 6.2381185503859662e+00 5.8288605888997118e+00 0 0 0
60 1 1.1226469238300341e+01 6.2911966426861241e+00 3.1773424100222880e+00 0 0 0
664 1 1.3847363043188242e+01 6.2831379834586558e+00 5.5556361623427213e+00 0 0 0
68 1 1.6586624177536059e+01 6.2610832091308497e+00 2.8395167999676176e+00 0 0 0
705 1 1.5253787490491236e+01 7.5196603551514185e+00 4.2321207056506385e+00 0 0 0
672 1 1.9318686992673104e+01 6.3412062068012958e+00 5.6395281804170709e+00 0 0 0
76 1 2.2047482119458142e+01 6.1395202570460476e+00 2.9484207066652788e+00 0 0 0
713 1 2.0708917149982440e+01 7.5200142288418315e+00 4.1979901818613010e+00 0 0 0
680 1 2.4771831977369711e+01 6.0712092112601308e+00 5.6122718910325426e+00 0 0 0
687 1 1.5890138275723884e+00 1.0321140526969339e+01 4.2620015686381238e+00 0 0 0
682 1 2.5401042040794514e-01 8.9497734577684227e+00 5.5849516074686081e+00 0 0 0
86 1 3.0331840324348827e+00 8.9862182512280686e+00 2.9219881387926052e+00 0 0 0
695 1 6.9803088907999138e+00 1.0350562973680987e+01 4.3846540254371300e+00 0 0 0
690 1 5.8036901366950016e+00 8.8359485534384472e+00 5.7266874421684193e+00 0 0 0
94 1 8.4571245837357605e+00 9.0122492527337545e+00 3.1384665856458920e+00 0 0 0
102 1 1.3946864974843276e+01 9.1168189079432160e+00 2.8640663085882170e+00 0 0 0
703 1 1.2543875283799869e+01 1.0366716769000787e+01 4.3770162169250799e+00 0 0 0
698 1 1.1138348045828449e+01 9.0495177894501850e+00 5.7552871771199676e+00 0 0 0
706 1 1.6625864904335309e+01 8.9634573727817521e+00 5.6291510646377798e+00 0 0 0
110 1 1.9321251687993513e+01 8.9989572440698478e+00 2.8503650885207219e+00 0 0 0
711 1 1.8088300477493750e+01 1.0382901554500613e+01 4.2836581117615173e+00 0 0 0
714 1 2.2048852281070452e+01 8.8406043589920937e+00 5.6117795628307316e+00 0 0 0
118 1 2.4773644334694744e+01 8.9265657483808489e+00 2.8868258384197776e+00 0 0 0
719 1 2.3385029429207513e+01 1.0327402313606068e+01 4.2346784963751212e+00 0 0 0
84 1 1.4279123302734581e-01 1.1528034738846072e+01 2.7821870519142533e+00 0 0 0
721 1 -1.0455915113653673e+00 1.2910652732720434e+01 4.2268428671121701e+00 0 0 0
729 1 4.2792019102049013e+00 1.3059582785094435e+01 4.3674026717955980e+00 0 0 0
688 1 2.9142597336313858e+00 1.1654936581095885e+01 5.6494897140100289e+00 0 0 0
92 1 5.5371717829448723e+00 1.1693833011231680e+01 3.0199073518878627e+00 0 0 0
737 1 9.8211018066291924e+00 1.3061654041012540e+01 4.4344603935922695e+00 0 0 0
100 1 1.1166733874573792e+01 1.1679045889293128e+01 3.0703304621852516e+00 0 0 0
745 1 1.5256540760558844e+01 1.2937214698576570e+01 4.1272430017130803e+00 0 0 0
108 1 1.6774930337188252e+01 1.1692447058041935e+01 2.9522611120531508e+00 0 0 0
712 1 1.9456707776393404e+01 1.1816589637711459e+01 5.6584418651769806e+00 0 0 0
753 1 2.0797856664320104e+01 1.2922514598525501e+01 4.2254274576302002e+00 0 0 0
116 1 2.2077602689766291e+01 1.1658944149021599e+01 2.8033314076631912e+00 0 0 0
720 1 2.4805475069432713e+01 1.1709313095620587e+01 5.5665540993452725e+00 0 0 0
727 1 1.6751604257983574e+00 1.5673897731164525e+01 4.3037868471413043e+00 0 0 0
124 1 1.9116424451003433e-01 1.7093904257357984e+01 3.0980937027974060e+00 0 0 0
1355 1 2.0647288774131642e+01 1.5646305661247036e+01 1.2390072711361270e+01 0 0 0
126 1 2.9563132087766704e+00 1.4222063702255081e+01 2.8466632697714309e+00 0 0 0
735 1 7.1003724181481660e+00 1.5699084682230435e+01 4.2217424746593721e+00 0 0 0
730 1 5.7517257818739074e+00 1.4504296038674179e+01 5.6675740281456131e+00 0 0 0
132 1 5.7972867628333669e+00 1.7047810468490070e+01 2.9774081823130567e+00 0 0 0
134 1 8.4258661739609320e+00 1.4372700755051028e+01 3.0300463831328925e+00 0 0 0
142 1 1.3968360344382726e+01 1.4265829121476333e+01 2.8038325839532190e+00 0 0 0
743 1 1.2515967506657065e+01 1.5650344781916891e+01 4.1893044234988448e+00 0 0 0
738 1 1.1151357190303985e+01 1.4417448332323691e+01 5.6469311948263048e+00 0 0 0
751 1 1.8034813094976617e+01 1.5716422081173155e+01 4.2622040694312924e+00 0 0 0
150 1 1.9473354465148059e+01 1.4447446689375838e+01 2.8570564460361609e+00 0 0 0
754 1 2.2044070119696755e+01 1.4280095040761395e+01 5.6156793275230639e+00 0 0 0
158 1 2.4796438670937334e+01 1.4341256425228918e+01 2.9938230588418149e+00 0 0 0
759 1 2.3444164954394946e+01 1.5697689701382991e+01 4.3449409741213909e+00 0 0 0
602 1 3.6253934379683556e-01 -1.8892353841968976e+00 5.4248119761877787e+00 0 0 0
611 1 4.4626101032862548e+00 -3.3743916146205299e-01 6.8735815672579497e+00 0 0 0
606 1 3.1427215632768193e+00 -1.8208919539751691e+00 8.3420942337353789e+00 0 0 0
610 1 5.6337558394163967e+00 -1.8274860011135872e+00 5.5192821418928419e+00 0 0 0
614 1 8.4960353696379105e+00 -1.8367309692882128e+00 8.5155340743280359e+00 0 0 0
619 1 9.7524212901618608e+00 -4.5733841608600539e-01 6.9564240137250222e+00 0 0 0
618 1 1.1174265209652569e+01 -1.9231762359686124e+00 5.4862228597539255e+00 0 0 0
622 1 1.3909722514031508e+01 -1.9428586419796054e+00 8.3777661685652465e+00 0 0 0
626 1 1.6546064266237284e+01 -1.9155242530686087e+00 5.6219503875721237e+00 0 0 0
627 1 1.5223563168517488e+01 -5.8373974856908595e-01 6.9789392956048211e+00 0 0 0
630 1 1.9314440492363058e+01 -1.8721251977591373e+00 8.2086098295784211e+00 0 0 0
635 1 2.0720690317528558e+01 -4.8529691199467156e-01 6.9764982531392432e+00 0 0 0
1354 1 2.2003147665083546e+01 1.4378107781604001e+01 1.1038923612729272e+01 0 0 0
603 1 -1.0186004527443977e+00 -6.2841306273102882e-01 6.9918539396112980e+00 0 0 0
638 1 2.4767235787521042e+01 -1.8881050801915757e+00 8.2750853180357460e+00 0 0 0
604 1 2.4971823936101947e-01 7.4654406558117636e-01 8.4170752767255124e+00 0 0 0
645 1 1.6367005657625844e+00 2.0478920521877813e+00 6.9751333719334099e+00 0 0 0
612 1 5.7941359821706184e+00 8.8630818868018657e-01 8.2494201237934224e+00 0 0 0
653 1 7.0444152089713112e+00 2.2906852442664207e+00 6.9287362969016479e+00 0 0 0
620 1 1.1167819924633367e+01 7.0047690797911910e-01 8.3541403853084848e+00 0 0 0
661 1 1.2480120744791600e+01 2.0887558322918012e+00 7.1493956562958525e+00 0 0 0
628 1 1.6560429616771160e+01 7.9602903194727681e-01 8.3726454716916781e+00 0 0 0
669 1 1.8034912259380253e+01 2.0968654058696483e+00 6.9390781281917775e+00 0 0 0
636 1 2.2079752103704525e+01 9.1402565516545020e-01 8.3747437889548326e+00 0 0 0
677 1 2.3279037555335993e+01 2.2260733612849593e+00 6.8883929564824991e+00 0 0 0
651 1 4.3778020182810629e+00 4.9014424915774555e+00 7.1331951457155780e+00 0 0 0
646 1 2.9397380286361083e+00 3.4413760191484521e+00 8.3908575959533174e+00 0 0 0
654 1 8.3599369683289790e+00 3.5501844749071987e+00 8.3161362239573116e+00 0 0 0
659 1 1.0036871667752120e+01 4.7770686532675466e+00 7.0575171143476823e+00 0 0 0
658 1 1.1228541119323815e+01 3.3665002995932141e+00 5.6662152004509556e+00 0 0 0
662 1 1.4051477558584391e+01 3.4967107662301746e+00 8.3318542505480604e+00 0 0 0
667 1 1.5401105619329384e+01 4.9630174919063883e+00 7.0281980386754910e+00 0 0 0
670 1 1.9280874546607667e+01 3.5898638146129773e+00 8.4052889823470522e+00 0 0 0
675 1 2.0704644666021039e+01 4.9841683309746321e+00 6.9768286214002266e+00 0 0 0
643 1 -1.0772131941243543e+00 4.6719642487685560e+00 7.1757764727543103e+00 0 0 0
678 1 2.4498989489077598e+01 3.5153971141713689e+00 8.3694188761791786e+00 0 0 0
644 1 2.1435287457692564e-01 6.3007579144906503e+00 8.2268642795063602e+00 0 0 0
685 1 1.6827385272145052e+00 7.6321191012014733e+00 6.9081947786400972e+00 0 0 0
652 1 5.6827035341646033e+00 6.1569155164192058e+00 8.5187512775892298e+00 0 0 0
693 1 7.0910895065019472e+00 7.4879714004207676e+00 7.1727273632279749e+00 0 0 0
660 1 1.1288717346411588e+01 6.1397455350797054e+00 8.4531416540660818e+00 0 0 0
701 1 1.2540722366982390e+01 7.4605427563573139e+00 6.9453115736379045e+00 0 0 0
668 1 1.6710617492307993e+01 6.3618275502873427e+00 8.2874538343490016e+00 0 0 0
709 1 1.8069520452307987e+01 7.6773677545271326e+00 7.1447094416041503e+00 0 0 0
676 1 2.2021518352619061e+01 6.2719512253765179e+00 8.4134663943965791e+00 0 0 0
717 1 2.3404919589393362e+01 7.4728886184903622e+00 7.0015521147492183e+00 0 0 0
686 1 2.9406859070165283e+00 8.9286969940129630e+00 8.3680794450067086e+00 0 0 0
691 1 4.2535368765632118e+00 1.0231047455901246e+01 6.9129606677841382e+00 0 0 0
694 1 8.6838397927711330e+00 8.9207657142081924e+00 8.2793521014719236e+00 0 0 0
699 1 9.8281037171287533e+00 1.0516553554504597e+01 6.9175788208976483e+00 0 0 0
702 1 1.3907069275811047e+01 8.8971051987496583e+00 8.3430702806789867e+00 0 0 0
707 1 1.5213612767547117e+01 1.0314862805190344e+01 6.9445954241654615e+00 0 0 0
710 1 1.9350641458885164e+01 9.0803282869773234e+00 8.5335451495522037e+00 0 0 0
715 1 2.0585197944455857e+01 1.0156027839664862e+01 6.9005391901044035e+00 0 0 0
683 1 -1.0631189138431090e+00 1.0373062991734988e+01 6.9380708622812719e+00 0 0 0
718 1 2.4714219273809533e+01 9.0460746882237117e+00 8.2375547576672190e+00 0 0 0
684 1 3.1228417961141258e-01 1.1621909613282742e+01 8.3983601876766674e+00 0 0 0
725 1 1.6973300257948050e+00 1.3016027852115402e+01 7.0511038894466429e+00 0 0 0
692 1 5.6831485242827453e+00 1.1598753696953226e+01 8.3039354845350495e+00 0 0 0
733 1 7.0983112959230006e+00 1.3076994766078743e+01 6.9649727899015845e+00 0 0 0
696 1 8.4093997307021695e+00 1.1764824436926888e+01 5.5909765845469268e+00 0 0 0
704 1 1.3950416671636971e+01 1.1674192763565486e+01 5.5879674636900960e+00 0 0 0
700 1 1.1253229430505415e+01 1.1816659729481517e+01 8.3619725289878737e+00 0 0 0
741 1 1.2563032330205155e+01 1.3195001985148041e+01 7.0317048045724446e+00 0 0 0
708 1 1.6490940928079397e+01 1.1694210297704023e+01 8.4672268866937479e+00 0 0 0
749 1 1.8000804450764591e+01 1.3021963181604232e+01 7.0357782752165434e+00 0 0 0
716 1 2.1933169534653732e+01 1.1664107946063160e+01 8.2678700062750483e+00 0 0 0
757 1 2.3465625286159884e+01 1.3074410894040080e+01 6.9635935780680507e+00 0 0 0
724 1 2.1193724056313201e-01 1.7043915393939336e+01 8.4146587942288686e+00 0 0 0
722 1 2.9315764386243620e-01 1.4227665247155924e+01 5.5768279446451441e+00 0 0 0
723 1 -9.7403585295030726e-01 1.5639957297951932e+01 7.0077279133132704e+00 0 0 0
731 1 4.3657622112036449e+00 1.5795107755493369e+01 7.0431683372410676e+00 0 0 0
726 1 3.0121778547446678e+00 1.4340192826053187e+01 8.4125516431660312e+00 0 0 0
732 1 5.6565229566696189e+00 1.7047518770042970e+01 8.5950198649253462e+00 0 0 0
736 1 8.3024687161778576e+00 1.7077796403065090e+01 5.6227870682709424e+00 0 0 0
734 1 8.3115798885588408e+00 1.4427745528422287e+01 8.3054444692471581e+00 0 0 0
739 1 9.7071993792654379e+00 1.5655041590927189e+01 7.0302933300554233e+00 0 0 0
740 1 1.1160108697438782e+01 1.7023113406140382e+01 8.3058251484052068e+00 0 0 0
742 1 1.4009524088112592e+01 1.4633354128106996e+01 8.3431906221619485e+00 0 0 0
746 1 1.6610517321745213e+01 1.4332725359938227e+01 5.5019705441482802e+00 0 0 0
747 1 1.5423693475717608e+01 1.5826029171655449e+01 6.8514074721717471e+00 0 0 0
752 1 1.9404203646777965e+01 1.7084920151097609e+01 5.5067776155444834e+00 0 0 0
750 1 1.9323685333172531e+01 1.4472490488844544e+01 8.3464753764172848e+00 0 0 0
755 1 2.0770022407708794e+01 1.5785619241891245e+01 6.9354831774574626e+00 0 0 0
1351 1 1.8013875326937463e+01 1.5785864156371527e+01 9.6913942278849170e+00 0 0 0
758 1 2.4736514450104025e+01 1.4431584165673842e+01 8.5521519224291609e+00 0 0 0
1202 1 2.5443139118607788e-01 -1.9334334790718484e+00 1.1186405657327480e+01 0 0 0
1207 1 1.6374074000511405e+00 -6.0001299464228808e-01 9.7759854863489188e+00 0 0 0
1209 1 4.2822520388133212e+00 -3.2174697628831530e+00 9.7749700314578192e+00 0 0 0
760 1 2.4752856555688947e+01 1.7047174107638270e+01 5.7317454985202421e+00 0 0 0
1210 1 5.5620191724241836e+00 -1.8806159173477894e+00 1.1276200801215827e+01 0 0 0
1215 1 6.9453446001573562e+00 -5.2920273558845465e-01 9.8465986923523641e+00 0 0 0
1346 1 1.6649067583616283e+01 1.4402778066438056e+01 1.1208437269914279e+01 0 0 0
1219 1 9.7760332748278103e+00 -7.2848653744053926e-01 1.2473153908979832e+01 0 0 0
1218 1 1.1131610833179584e+01 -2.0542835045014090e+00 1.1117765897694188e+01 0 0 0
1223 1 1.2513496232389565e+01 -5.7577864627839626e-01 9.8029097585501095e+00 0 0 0
1226 1 1.6623708534671238e+01 -1.9126840035231980e+00 1.1094293873171706e+01 0 0 0
1227 1 1.5218129220327477e+01 -6.0507583109763707e-01 1.2447985440468457e+01 0 0 0
1231 1 1.7992987414169534e+01 -5.8656147441409423e-01 9.6473924722911537e+00 0 0 0
1234 1 2.1924090881523114e+01 -1.8821847882132776e+00 1.1052074299089732e+01 0 0 0
1235 1 2.0562719884271026e+01 -6.0817655290594852e-01 1.2395342054223264e+01 0 0 0
1203 1 2.6042446608258064e+01 -5.4436576846548723e-01 1.2497608795874207e+01 -1 0 0
1239 1 2.3458651598170011e+01 -5.0759282218382062e-01 9.7037924366115345e+00 0 0 0
1245 1 1.5383561974706341e+00 2.2168139685208299e+00 1.2446529531455937e+01 0 0 0
1249 1 4.3631253600977900e+00 2.2033623481241005e+00 9.7608980490567347e+00 0 0 0
1208 1 2.9051674166931170e+00 8.0656515814501495e-01 1.1069077482041651e+01 0 0 0
148 1 1.6671886613661663e+01 1.7059472128857522e+01 2.9651178923184491e+00 0 0 0
1216 1 8.3661902210646737e+00 8.4878016558419123e-01 1.1088060274540863e+01 0 0 0
1257 1 9.8462677081256391e+00 2.2139374492229336e+00 9.6176529384628271e+00 0 0 0
1224 1 1.3957128670510274e+01 8.3476557098504478e-01 1.1017846158380300e+01 0 0 0
140 1 1.1086777341856054e+01 1.7026125760772526e+01 2.9015091093511387e+00 0 0 0
1265 1 1.5462723277668603e+01 2.2106058363720114e+00 9.7904483541077028e+00 0 0 0
1232 1 1.9278032010663615e+01 7.6049354311722073e-01 1.1078715996154276e+01 0 0 0
1343 1 1.2494091565396353e+01 1.5722091789804070e+01 9.7555676575489567e+00 0 0 0
1273 1 2.0615530230755343e+01 2.2166797077486478e+00 9.8840639961267538e+00 0 0 0
1241 1 2.6002799620022490e+01 2.1904673925602340e+00 9.6671513108199605e+00 -1 0 0
1240 1 2.4764097999554139e+01 8.7842671451442300e-01 1.1087374623372947e+01 0 0 0
1277 1 2.3332331395546461e+01 2.2561476813420498e+00 1.2412409692200658e+01 0 0 0
1242 1 2.4678168106211346e-01 3.5224570284102614e+00 1.0932720874842767e+01 0 0 0
1247 1 1.5256592315470021e+00 4.9380845339594490e+00 9.6718272305407567e+00 0 0 0
1243 1 -1.0547686319182288e+00 4.7487977911520565e+00 1.2382075425183466e+01 0 0 0
1251 1 4.1514146201886843e+00 4.8394104669210494e+00 1.2356518017379981e+01 0 0 0
1250 1 5.6955170355304947e+00 3.5022789596487254e+00 1.1167457127707221e+01 0 0 0
1255 1 7.1037718070872664e+00 4.8116128181097046e+00 9.7947867564976683e+00 0 0 0
1338 1 1.1113221252490725e+01 1.4456257561006314e+01 1.1092104962231556e+01 0 0 0
1258 1 1.1184540325239054e+01 3.4094170027602662e+00 1.1240627451196788e+01 0 0 0
1263 1 1.2600767093019336e+01 4.8883702043194228e+00 9.7968454212516392e+00 0 0 0
1266 1 1.6773446167193832e+01 3.5722226215029971e+00 1.1230655523401417e+01 0 0 0
1339 1 9.7759656056622575e+00 1.5744402691157140e+01 1.2472376190610946e+01 0 0 0
1271 1 1.8050808676652352e+01 4.9501801927457718e+00 9.8353782193746859e+00 0 0 0
1274 1 2.1946472090299959e+01 3.6351885249792106e+00 1.1138761384516432e+01 0 0 0
1336 1 8.4761884731909536e+00 1.7060612762573982e+01 1.1199020696249942e+01 0 0 0
1279 1 2.3382504623807641e+01 4.9535058893248776e+00 9.7247605712015641e+00 0 0 0
1281 1 2.6094625868508103e+01 7.7465421197543405e+00 9.6235213689602848e+00 -1 0 0
1335 1 7.0570215094138149e+00 1.5606783088992469e+01 9.7825893117157090e+00 0 0 0
1289 1 4.2534461612270196e+00 7.5496753407079211e+00 9.8054075155171212e+00 0 0 0
1248 1 2.8952765637119278e+00 6.3521884037076290e+00 1.1145444473827869e+01 0 0 0
1293 1 7.0058190157967610e+00 7.6428604935117423e+00 1.2423513330218432e+01 0 0 0
1297 1 9.9413817524852810e+00 7.4777547285476640e+00 9.7221647473905772e+00 0 0 0
1256 1 8.4474027233281408e+00 6.2918459682244947e+00 1.1080256768440702e+01 0 0 0
1301 1 1.2538189600187129e+01 7.6229550215527411e+00 1.2489948596750470e+01 0 0 0
1264 1 1.4030769352807850e+01 6.2960279311593608e+00 1.1119111709460034e+01 0 0 0
1305 1 1.5367987643456834e+01 7.5828641799668084e+00 9.6101206574048827e+00 0 0 0
1272 1 1.9403020919717783e+01 6.2843940316602831e+00 1.1115058421790195e+01 0 0 0
1309 1 1.8023653144611028e+01 7.5380576861513999e+00 1.2451289287010232e+01 0 0 0
1313 1 2.0742391137363349e+01 7.7570206299879869e+00 9.8071676975425586e+00 0 0 0
1280 1 2.4920950685349634e+01 6.1975454246651260e+00 1.0989611322551749e+01 0 0 0
1317 1 2.3498757878737557e+01 7.6235488739727080e+00 1.2342543251040054e+01 0 0 0
1287 1 1.6883534365435191e+00 1.0329977876838528e+01 9.7152306647876312e+00 0 0 0
1282 1 3.4088508095907788e-01 8.9124327739703642e+00 1.1053374946783341e+01 0 0 0
1295 1 7.1500468258601746e+00 1.0191181832031969e+01 9.6196888396140885e+00 0 0 0
1290 1 5.7105655421592676e+00 8.9578717160833179e+00 1.1027289080643813e+01 0 0 0
1298 1 1.1207122266776144e+01 8.9141346257394556e+00 1.1004839183323863e+01 0 0 0
1303 1 1.2557883590767913e+01 1.0363985271397544e+01 9.5868579983542901e+00 0 0 0
1306 1 1.6420014779658633e+01 8.8861148965364762e+00 1.1257854710445569e+01 0 0 0
1307 1 1.5081341024319695e+01 1.0301110629985837e+01 1.2472563198744581e+01 0 0 0
1311 1 1.7704236179737887e+01 1.0220061084213793e+01 9.8217417579138857e+00 0 0 0
1314 1 2.2197945124848353e+01 9.0297891121893787e+00 1.1105316781770107e+01 0 0 0
1315 1 2.0680205690374990e+01 1.0340487917315919e+01 1.2320429277878580e+01 0 0 0
1319 1 2.3401168637235649e+01 1.0400372512271241e+01 9.6743552687731533e+00 0 0 0
1283 1 -1.0784946727754701e+00 1.0134004386599564e+01 1.2455186671124899e+01 0 0 0
1325 1 1.6891500823593817e+00 1.3067104554811069e+01 1.2431066071435476e+01 0 0 0
1329 1 4.2547626189072485e+00 1.2907847538972815e+01 9.8024341141844058e+00 0 0 0
1288 1 2.9073276007064148e+00 1.1670553362776998e+01 1.1059069617633863e+01 0 0 0
1337 1 9.6646183693960452e+00 1.3135896146537068e+01 9.7813638651483359e+00 0 0 0
1296 1 8.4668962704237991e+00 1.1560618495052166e+01 1.1065626790604259e+01 0 0 0
1330 1 5.5924626086928031e+00 1.4412384024140165e+01 1.1082380396159106e+01 0 0 0
1304 1 1.3734962864458678e+01 1.1752763205307156e+01 1.1110170319307125e+01 0 0 0
1345 1 1.5275521988716616e+01 1.3067297039010276e+01 9.7405416288625695e+00 0 0 0
1312 1 1.9132813798635905e+01 1.1615487160242647e+01 1.1133833592484340e+01 0 0 0
1349 1 1.7946180209347872e+01 1.2941968685347197e+01 1.2452118909312610e+01 0 0 0
1353 1 2.0562067728001729e+01 1.2993899263515504e+01 9.7389219709012469e+00 0 0 0
1320 1 2.4803596494019359e+01 1.1604249907950400e+01 1.1051991917074117e+01 0 0 0
1321 1 -1.0493465978392820e+00 1.3018468971889520e+01 9.7347423527694499e+00 0 0 0
1322 1 2.9283956871212902e-01 1.4408624537839723e+01 1.1153254761144149e+01 0 0 0
1327 1 1.5755290000589559e+00 1.5651020953779913e+01 9.8082703587374365e+00 0 0 0
1328 1 2.8531487488815839e+00 1.6915032432927518e+01 1.1215177753920045e+01 0 0 0