LAMMPS data file via write_data, version 30 Jul 2016, timestep = 10000

4000 atoms
1 atom types

-1.1037168687976475e+00 2.6103716868797584e+01 xlo xhi
-4.4148674751905901e+00 1.0441486747519033e+02 ylo yhi
-1.1037168687976475e+00 2.6103716868797584e+01 zlo zhi

Masses

1 28.0855

Atoms # atomic

2 1 3.3050630683634752e-01 -3.2081060746123491e+00 3.5906057107871286e-01 0 0 0
7 1 1.6263385323323192e+00 -1.7496706719218262e+00 -9.6462306828439248e-01 0 0 0
11 1 4.3832949419726646e+00 -1.7808910974837755e+00 1.6985938357537258e+00 0 0 0
1800 1 2.4851906392677897e+01 2.1333500094287253e+01 1.1212630757330329e+01 0 0 0
10 1 5.6895042911164309e+00 -3.0738526051348649e+00 2.8031072799458390e-01 0 0 0
19 1 9.7447474302838391e+00 -1.6779486265666845e+00 1.6440154618124574e+00 0 0 0
18 1 1.1164582103328348e+01 -2.8689372970844524e+00 2.9548460662990200e-01 0 0 0
1799 1 2.3414811125029253e+01 2.0183469073959003e+01 9.6584783986967295e+00 0 0 0
23 1 1.2555353161121500e+01 -1.6038933477102504e+00 -9.1402304230385290e-01 0 0 0
27 1 1.5306788944619294e+01 -1.8618267108973010e+00 1.7192918767355034e+00 0 0 0
26 1 1.6604096017162238e+01 -3.1246260991526862e+00 2.0704394229116929e-01 0 0 0
31 1 1.7985904260084091e+01 -1.6738723274919494e+00 -1.0602270010896224e+00 0 0 0
1801 1 2.6065543661767737e+01 2.2644414049864647e+01 9.7445398413453344e+00 -1 0 0
34 1 2.2026292141687890e+01 -3.0631130476530855e+00 3.8360091092313232e-02 0 0 0
35 1 2.0701442425430137e+01 -1.7637744697830722e+00 1.5933182249019644e+00 0 0 0
3 1 -9.6540609508506847e-01 -1.8114444915660448e+00 1.6539169819373578e+00 0 0 0
1795 1 2.0639074588206523e+01 2.0066813242849239e+01 1.2401910352204606e+01 0 0 0
45 1 1.6240239473362161e+00 9.2220591762408144e-01 1.5497245846486452e+00 0 0 0
8 1 2.9420523466673045e+00 -4.0756037536532824e-01 3.8187579044468767e-01 0 0 0
53 1 6.9533553716930898e+00 1.0201053583763349e+00 1.6118990845454797e+00 0 0 0
16 1 8.2798432912555828e+00 -3.0159339545525332e-01 3.0058112762573147e-01 0 0 0
57 1 9.6892552314277793e+00 1.0501064941270930e+00 -9.6352548576144637e-01 0 0 0
61 1 1.2328938311649763e+01 1.0552424310627453e+00 1.5748637828140266e+00 0 0 0
24 1 1.3891611172708515e+01 -2.8279202950493332e-01 4.0863137709163405e-01 0 0 0
65 1 1.5216885408425265e+01 1.0905748505874473e+00 -9.8107442093751818e-01 0 0 0
69 1 1.7931587972497731e+01 1.0427534334467874e+00 1.5709662144398848e+00 0 0 0
32 1 1.9368599394825971e+01 -3.2559550472687920e-01 2.9520210406809755e-01 0 0 0
73 1 2.0602587285692660e+01 1.0531493883261938e+00 -1.0502268002372090e+00 0 0 0
77 1 2.3375478607819232e+01 1.1227899814279372e+00 1.5572326150895308e+00 0 0 0
40 1 2.4760860042108472e+01 -4.3958220189888508e-01 3.8576324148321306e-01 0 0 0
42 1 2.1228585372747494e-01 2.3198530043444725e+00 2.9653356723546864e-01 0 0 0
43 1 2.6078996425515545e+01 3.7204057044131380e+00 1.6312234158816061e+00 -1 0 0
47 1 1.5305718051904782e+00 3.7136520094742531e+00 -1.0269935487698574e+00 0 0 0
51 1 4.2777830919851318e+00 3.7223467387479943e+00 1.5837977837665078e+00 0 0 0
50 1 5.5790270006192824e+00 2.3526802944366252e+00 3.0186478337511358e-01 0 0 0
59 1 9.7021588681961024e+00 3.9438553308552762e+00 1.6600642850518312e+00 0 0 0
58 1 1.1041256601774815e+01 2.5309921005631071e+00 2.9230991793742661e-01 0 0 0
63 1 1.2461689672544106e+01 3.8249918511479311e+00 -1.0769107327672778e+00 0 0 0
67 1 1.5233111210957622e+01 3.7587614912983569e+00 1.6362945118380803e+00 0 0 0
66 1 1.6613996253075662e+01 2.3527127762840259e+00 4.1910911308094811e-01 0 0 0
71 1 1.7933109262960237e+01 3.5654280965357308e+00 -1.0246599645229326e+00 0 0 0
74 1 2.1967775265876000e+01 2.4303838667032576e+00 2.5979683088613253e-01 0 0 0
75 1 2.0649750257178152e+01 3.6818268633929292e+00 1.6758444677245157e+00 0 0 0
85 1 1.5383142410168460e+00 6.6739785742569024e+00 1.5554907986857678e+00 0 0 0
48 1 3.0143536518279772e+00 5.2316431405504265e+00 1.8428658271972007e-01 0 0 0
1609 1 4.3946936938974384e+00 -4.3805275669693486e+00 9.7629316759233831e+00 0 0 0
93 1 6.9585611500314064e+00 6.6917832174342964e+00 1.5375541800257437e+00 0 0 0
56 1 8.2107891119569594e+00 5.1593675175491009e+00 3.6881802761206123e-01 0 0 0
97 1 9.7345110826812249e+00 6.4859476010284647e+00 -1.0453664653292489e+00 0 0 0
64 1 1.3856607012435916e+01 5.0475049026022143e+00 2.5678694104884697e-01 0 0 0
101 1 1.2427392106760911e+01 6.4233790289370836e+00 1.6748051604265659e+00 0 0 0
1605 1 1.5842448284679762e+00 -4.2511129210846121e+00 1.2495852182725447e+01 0 0 0
72 1 1.9264444469415569e+01 4.9915762512448909e+00 2.1812840831532229e-01 0 0 0
109 1 1.7886026195450281e+01 6.4856239837356764e+00 1.6871397027206747e+00 0 0 0
80 1 2.4776386762705283e+01 5.1249432841306346e+00 3.4040919818996995e-01 0 0 0
117 1 2.3377480576384126e+01 6.4643417405978489e+00 1.6632676789093710e+00 0 0 0
82 1 1.5711238019444007e-01 8.0468027896169154e+00 1.6949797735152025e-01 0 0 0
83 1 2.5978534110883604e+01 9.2623478126577208e+00 1.5554451656168131e+00 -1 0 0
91 1 4.3190908428415140e+00 9.3147905693359601e+00 1.3470786369868872e+00 0 0 0
88 1 2.9663996624887417e+00 1.0757223832433162e+01 1.0997036941897204e-01 0 0 0
90 1 5.7248344924308947e+00 8.0338814176251123e+00 4.2092398145197624e-03 0 0 0
821 1 1.2433400402398492e+01 -4.3913193856139259e+00 7.0949737835202127e+00 0 0 0
96 1 8.4444807132997717e+00 1.0650922519143807e+01 1.2377123202536474e-02 0 0 0
99 1 9.7808975776272327e+00 9.3312572194734358e+00 1.5852768138550086e+00 0 0 0
98 1 1.1184892386274976e+01 7.9764979327576615e+00 2.5827933424607602e-01 0 0 0
104 1 1.3764283722494834e+01 1.0626641844647050e+01 3.7834972311420201e-01 0 0 0
106 1 1.6550111220120222e+01 7.7460434768040063e+00 2.0346796444710682e-01 0 0 0
107 1 1.5178196176178906e+01 9.2540973911323370e+00 1.5804870897521670e+00 0 0 0
112 1 1.9270935415156892e+01 1.0690911360328078e+01 2.7852045821038340e-01 0 0 0
114 1 2.2008276803282833e+01 7.8352127843643835e+00 1.5367410341985457e-01 0 0 0
115 1 2.0668684215753519e+01 9.2681288221931855e+00 1.5435233496269298e+00 0 0 0
120 1 2.4733260443927836e+01 1.0680001078947535e+01 2.0364805009948025e-01 0 0 0
825 1 1.5273804428486502e+01 -4.4123427798696753e+00 4.4233653969502917e+00 0 0 0
125 1 1.4879164073444302e+00 1.2041807692683737e+01 1.4522195957901372e+00 0 0 0
122 1 1.7332125785538341e-01 1.3369844414743479e+01 9.2706269229279062e-02 0 0 0
133 1 7.1631637545354163e+00 1.1898941301857215e+01 1.5412130467059455e+00 0 0 0
130 1 5.7284869075591605e+00 1.3248576034867416e+01 3.0654648106621712e-01 0 0 0
13 1 6.9945263567856433e+00 -4.2765604150902305e+00 1.7609770976735954e+00 0 0 0
141 1 1.2368677676073203e+01 1.1954915372555075e+01 1.7232898802508929e+00 0 0 0
138 1 1.1128206232570793e+01 1.3458531726674861e+01 2.5303680797768063e-01 0 0 0
145 1 1.5158700266333293e+01 1.1784412491110745e+01 -1.0476927238901201e+00 0 0 0
146 1 1.6586886735098808e+01 1.3270843235855322e+01 3.9672005090881951e-02 0 0 0
149 1 1.7922370379641027e+01 1.2037958855033189e+01 1.6834353405510376e+00 0 0 0
153 1 2.0645641557014876e+01 1.1939248536232975e+01 -1.0959059640673254e+00 0 0 0
154 1 2.1975221868732771e+01 1.3263417925755848e+01 3.0806489798627373e-01 0 0 0
157 1 2.3362743428899723e+01 1.1888914889549291e+01 1.6256098419037830e+00 0 0 0
131 1 4.1814365875338204e+00 1.4714801503666830e+01 1.5983530075485715e+00 0 0 0
128 1 2.8874062868577619e+00 1.5997297378976189e+01 2.0706555164983950e-01 0 0 0
139 1 9.7320513614821067e+00 1.4656838431553702e+01 1.5545965569202791e+00 0 0 0
136 1 8.3377111048148453e+00 1.5885259630731310e+01 1.7225095863369688e-01 0 0 0
144 1 1.3887850565783383e+01 1.6073424373795618e+01 2.8837347354706461e-01 0 0 0
1601 1 2.5951204450032247e+01 -4.2598597627863768e+00 9.8100565487692393e+00 -1 0 0
147 1 1.5246868367289910e+01 1.4665970175061503e+01 1.6076945823337043e+00 0 0 0
152 1 1.9251250350716287e+01 1.5976760651553516e+01 4.6210282937734160e-02 0 0 0
1829 1 1.7995165498349518e+01 2.2727848806438740e+01 1.2379449941701040e+01 0 0 0
155 1 2.0553618724662524e+01 1.4672423943754458e+01 1.6191586677846004e+00 0 0 0
123 1 2.6040629525281254e+01 1.4619346641465700e+01 1.5765610845159452e+00 -1 0 0
159 1 2.3296364892707981e+01 1.4616352757362165e+01 -1.0024379993255841e+00 0 0 0
160 1 2.4631843961015786e+01 1.6005037292360093e+01 2.2285421068880171e-01 0 0 0
162 1 2.0949482982618653e-01 1.8604461659632317e+01 4.3516227670135443e-01 0 0 0
165 1 1.5427753055498898e+00 1.7298713103013288e+01 1.7674956458869899e+00 0 0 0
161 1 2.6063210012156691e+01 1.7354613936651454e+01 -1.0934670286308414e+00 -1 0 0
1825 1 1.5281533255871510e+01 2.2724661427063914e+01 9.7571643583099537e+00 0 0 0
170 1 5.7193367214335602e+00 1.8771498814364136e+01 2.3484785408775474e-01 0 0 0
173 1 7.1593017447507039e+00 1.7409989621420980e+01 1.5583479289492184e+00 0 0 0
177 1 9.7573848674402708e+00 1.7370451301251155e+01 -1.0964298500131708e+00 0 0 0
178 1 1.1145266914931518e+01 1.8666305275851006e+01 3.0610673225825530e-01 0 0 0
181 1 1.2570419664732587e+01 1.7433513196982396e+01 1.5789442049785321e+00 0 0 0
185 1 1.5205668808954671e+01 1.7444547175377842e+01 -1.0390482651978112e+00 0 0 0
186 1 1.6538238047209695e+01 1.8780121169990444e+01 2.3513144156086105e-01 0 0 0
189 1 1.7905007319198141e+01 1.7347159841894399e+01 1.5535532792859845e+00 0 0 0
194 1 2.2018977523308749e+01 1.8714377469377428e+01 1.9257126366096011e-01 0 0 0
197 1 2.3182072586946948e+01 1.7283727244715742e+01 1.7102495962624182e+00 0 0 0
163 1 2.6029458709035666e+01 2.0135217400815073e+01 1.6865502497957372e+00 -1 0 0
1792 1 1.9386814368312471e+01 2.1387219209308313e+01 1.1013128898057097e+01 0 0 0
167 1 1.6236764829459400e+00 1.9999013282851784e+01 -9.2092192837255016e-01 0 0 0
171 1 4.2933826218777815e+00 2.0071783663304508e+01 1.5757279179332102e+00 0 0 0
168 1 2.9315808623497439e+00 2.1491561244582787e+01 4.0987573435995761e-01 0 0 0
175 1 7.0999462467554579e+00 2.0162743398901679e+01 -1.0925897238849034e+00 0 0 0
217 1 9.7317516194382421e+00 2.2728211964187434e+01 -1.0399741279686112e+00 0 0 0
176 1 8.4520236395921984e+00 2.1424383344923118e+01 3.0856571387651616e-01 0 0 0
179 1 9.8733738627107890e+00 1.9977019143429406e+01 1.6474438067489463e+00 0 0 0
183 1 1.2416964278759639e+01 2.0064312816051910e+01 -1.0752773175505754e+00 0 0 0
184 1 1.3921574921822375e+01 2.1503041796984608e+01 2.7151637104016119e-01 0 0 0
187 1 1.5185377219543613e+01 2.0099156153050398e+01 1.6195333954207582e+00 0 0 0
1033 1 2.0637648402366871e+01 2.2773611791840118e+01 4.2747064757147637e+00 0 0 0
192 1 1.9186734446292281e+01 2.1520388313865308e+01 2.1904440041030956e-01 0 0 0
195 1 2.0592442340257087e+01 2.0261816555129812e+01 1.7148711083674564e+00 0 0 0
1017 1 9.8412935931353509e+00 2.2773204720390240e+01 4.1698772307528182e+00 0 0 0
200 1 2.4731167625524964e+01 2.1421822699926544e+01 2.6376267975303885e-01 0 0 0
807 1 1.6189173750271348e+00 -1.7597379468590790e+00 4.4265163324059671e+00 0 0 0
1791 1 1.7935269431851562e+01 1.9894833745066563e+01 1.0012821477483111e+01 0 0 0
6 1 2.9998696773039408e+00 -3.0648342626468450e+00 3.1225548982726234e+00 0 0 0
815 1 6.9162070879527793e+00 -1.7911888955315545e+00 4.2215361961355198e+00 0 0 0
14 1 8.4572983125439105e+00 -2.9952053834753567e+00 3.0159479626739372e+00 0 0 0
22 1 1.3847312140657179e+01 -3.0551971061737495e+00 3.0281156022117641e+00 0 0 0
823 1 1.2366287784475272e+01 -1.7320052363650840e+00 4.3377916377971646e+00 0 0 0
831 1 1.7983895485098596e+01 -1.6890094431836797e+00 4.3256387650191961e+00 0 0 0
30 1 1.9239706314733311e+01 -3.1155716470068180e+00 2.9454046338302939e+00 0 0 0
834 1 2.1970704469000815e+01 -2.9943809491963860e+00 5.7256233577310534e+00 0 0 0
38 1 2.4789850263553667e+01 -3.1638024837250631e+00 2.9757421195813976e+00 0 0 0
839 1 2.3334462350540701e+01 -1.7367405956839002e+00 4.1795834459077472e+00 0 0 0
4 1 2.9122573864414125e-01 -3.6418725758523013e-01 3.0894453353044664e+00 0 0 0
849 1 4.2670876484779834e+00 1.0086016103192681e+00 4.3515706064230946e+00 0 0 0
808 1 3.0066940273013465e+00 -3.2469210845768165e-01 5.6834126010650454e+00 0 0 0
12 1 5.6123991820444079e+00 -3.4105470406958249e-01 3.0299543067993229e+00 0 0 0
857 1 9.6468818610495966e+00 9.6190528239373629e-01 4.1522421515005998e+00 0 0 0
816 1 8.3489741391110819e+00 -4.4086134387301995e-01 5.5938557213090396e+00 0 0 0
20 1 1.1078444142880763e+01 -2.9333794040020267e-01 2.8683293949087587e+00 0 0 0
865 1 1.5284500861872072e+01 9.7326525338954584e-01 4.2905376967037201e+00 0 0 0
28 1 1.6602619550738670e+01 -4.6150533276004552e-01 2.9224000730491864e+00 0 0 0
832 1 1.9347160144978577e+01 -1.8570314449857123e-01 5.6620048309145963e+00 0 0 0
873 1 2.0689446806779536e+01 9.8356439022509179e-01 4.2204140762702167e+00 0 0 0
36 1 2.2094206584081277e+01 -3.2503115598018378e-01 2.7701671432403887e+00 0 0 0
841 1 2.6036440825718262e+01 1.0120704693637144e+00 4.3756714860813881e+00 -1 0 0
840 1 2.4601201638795239e+01 -4.0232602603583772e-01 5.5730217906305572e+00 0 0 0
847 1 1.4877894819606485e+00 3.5976566239188292e+00 4.1861640847872028e+00 0 0 0
842 1 3.2440318917474070e-01 2.3801126953768121e+00 5.7279239043489962e+00 0 0 0
46 1 2.9147793794746688e+00 2.2696527559711432e+00 2.9182994666153879e+00 0 0 0
855 1 6.9019477794553730e+00 3.7801478526201007e+00 4.2716541400164827e+00 0 0 0
54 1 8.2901408725422332e+00 2.4665451429785743e+00 2.9431327819274076e+00 0 0 0
62 1 1.3829841139332773e+01 2.2878073045276515e+00 2.9739587649832608e+00 0 0 0
863 1 1.2571456280424512e+01 3.5929156019665847e+00 4.5250330602167859e+00 0 0 0
858 1 1.1108881104681744e+01 2.2007558082422185e+00 5.7396909824739604e+00 0 0 0
871 1 1.7876967581456107e+01 3.6411105354494069e+00 4.3657067656378299e+00 0 0 0
70 1 1.9291045719600621e+01 2.4086198422609892e+00 2.9274357103014710e+00 0 0 0
874 1 2.1902643900453260e+01 2.3566364070658090e+00 5.6246783225924233e+00 0 0 0
78 1 2.4640420752136801e+01 2.4224587865671507e+00 3.0540726601922104e+00 0 0 0
879 1 2.3348484875445710e+01 3.7298030943034650e+00 4.3926008571507396e+00 0 0 0
44 1 2.1609574050805622e-01 5.1952072162515126e+00 2.8876137667654196e+00 0 0 0
881 1 -1.0888645414989249e+00 6.4897986247606729e+00 4.1896830431119563e+00 0 0 0
889 1 4.1880580905935476e+00 6.6357688401663086e+00 4.3450100213167620e+00 0 0 0
848 1 2.7655298362899576e+00 5.0572199450165094e+00 5.6711872486619646e+00 0 0 0
52 1 5.5214751616758866e+00 5.3180045157104638e+00 2.9236555849885391e+00 0 0 0
897 1 9.7054707626137162e+00 6.5236135569796598e+00 4.4291586097786286e+00 0 0 0
60 1 1.1078063949701406e+01 5.0089675924084540e+00 3.1281971053024860e+00 0 0 0
864 1 1.3867388544490844e+01 4.9758461283335684e+00 5.6740690012393680e+00 0 0 0
68 1 1.6556839285253023e+01 5.0934110706730547e+00 2.8855228818255321e+00 0 0 0
905 1 1.5161928728753539e+01 6.4098763976692057e+00 4.3255534702486393e+00 0 0 0
110 1 1.9391690487930120e+01 7.8730663983993674e+00 2.9819125489350955e+00 0 0 0
76 1 2.2000485209725188e+01 5.0717012918353532e+00 3.0179710001263311e+00 0 0 0
913 1 2.0701807076862870e+01 6.4038707524354024e+00 4.3950712415363800e+00 0 0 0
84 1 2.3707541028037848e-01 1.0648855348826984e+01 2.7506079137776855e+00 0 0 0
887 1 1.6747033495891943e+00 9.3733135278427184e+00 4.1828606265061135e+00 0 0 0
86 1 2.9289978189570745e+00 7.9852870246440313e+00 2.8676536917308209e+00 0 0 0
92 1 5.6507656282869991e+00 1.0547201721365038e+01 2.9033550680032096e+00 0 0 0
895 1 7.0947458824464595e+00 9.2927615316812719e+00 4.4030847632269525e+00 0 0 0
94 1 8.3066818428308338e+00 7.9374392474898414e+00 3.0046190058700688e+00 0 0 0
102 1 1.3879746820377404e+01 7.8946098769002955e+00 3.0310303266795038e+00 0 0 0
100 1 1.1035744574245836e+01 1.0489103319537534e+01 3.1499334778469876e+00 0 0 0
903 1 1.2498122103194897e+01 9.1947216358995831e+00 4.5297992904680999e+00 0 0 0
898 1 1.1189952371682283e+01 7.7355644839538664e+00 5.8335129041085203e+00 0 0 0
108 1 1.6578631318581209e+01 1.0580026258880412e+01 2.9589514423729795e+00 0 0 0
906 1 1.6593933477918775e+01 7.8131597159892898e+00 5.7473405359729641e+00 0 0 0
911 1 1.7928758845007611e+01 9.1660318020608429e+00 4.3554204582350975e+00 0 0 0
116 1 2.1928672279549509e+01 1.0432937910770077e+01 3.0017700070560664e+00 0 0 0
118 1 2.4652289977111202e+01 7.8733376544170577e+00 2.8504947059582801e+00 0 0 0
919 1 2.3410864144384959e+01 9.2431401902260912e+00 4.3445694507537373e+00 0 0 0
920 1 2.4853109684228382e+01 1.0681096473759316e+01 5.6286553203992655e+00 0 0 0
922 1 2.6315311572832722e-01 1.3360987685079309e+01 5.7619401810766204e+00 0 0 0
929 1 4.3412203616292881e+00 1.1941702164467177e+01 4.3059139006622154e+00 0 0 0
126 1 2.9013984276447431e+00 1.3260583277827475e+01 2.9277972338252720e+00 0 0 0
937 1 9.7578454123549534e+00 1.1969603588302002e+01 4.4454927671755575e+00 0 0 0
134 1 8.4070339267412919e+00 1.3321439808183646e+01 3.0590962074448012e+00 0 0 0
142 1 1.3853275478953133e+01 1.3243489026556437e+01 3.0761368955857429e+00 0 0 0
945 1 1.5235094267537606e+01 1.1854028089043144e+01 4.3914367846365483e+00 0 0 0
150 1 1.9223617019264246e+01 1.3324095822294741e+01 3.0783532348137999e+00 0 0 0
953 1 2.0545285791311152e+01 1.1766048946158293e+01 4.3952396101755111e+00 0 0 0
921 1 -9.8904071256594506e-01 1.2039906322133698e+01 4.2793077335755614e+00 0 0 0
158 1 2.4767509420718046e+01 1.3222703892212820e+01 3.0415045068539110e+00 0 0 0
927 1 1.4996062466095843e+00 1.4605639557539968e+01 4.3745799805168275e+00 0 0 0
124 1 1.3768598250309666e-01 1.5931752514215560e+01 2.9731794029758145e+00 0 0 0
935 1 7.0841782220126959e+00 1.4683459862422222e+01 4.3802299372983082e+00 0 0 0
132 1 5.6362806882372434e+00 1.6163494198894465e+01 2.9536347585683971e+00 0 0 0
943 1 1.2585296046263355e+01 1.4635383953743846e+01 4.3411617205695876e+00 0 0 0
140 1 1.1224196925770098e+01 1.6072499832602986e+01 2.8787885761437213e+00 0 0 0
148 1 1.6663888758249108e+01 1.5991057147858621e+01 2.8686939546199284e+00 0 0 0
951 1 1.7930629850104239e+01 1.4664937663679673e+01 4.3250156904416581e+00 0 0 0
156 1 2.1965273117832123e+01 1.5856281423546914e+01 3.0885505608915738e+00 0 0 0
959 1 2.3349580216542606e+01 1.4471966321348226e+01 4.3667340123018210e+00 0 0 0
960 1 2.4741810528202418e+01 1.5865323707374506e+01 5.8013043678221363e+00 0 0 0
961 1 2.5910698281776764e+01 1.7307369338041926e+01 4.3523916018771533e+00 -1 0 0
969 1 4.4354810978978723e+00 1.7465167605939055e+01 4.4646369410789966e+00 0 0 0
166 1 3.0638464981623161e+00 1.8722515718022382e+01 2.9926082079602576e+00 0 0 0
174 1 8.4662921862707616e+00 1.8716103045774052e+01 3.0855651680201439e+00 0 0 0
977 1 9.8010695952780793e+00 1.7414999993538832e+01 4.3350098026415242e+00 0 0 0
182 1 1.3815431589663730e+01 1.8759356897905729e+01 2.9929241627336407e+00 0 0 0
985 1 1.5277872820594606e+01 1.7308944268357394e+01 4.1758851957239047e+00 0 0 0
190 1 1.9387127743365312e+01 1.8648896691085550e+01 3.0805817797586315e+00 0 0 0
993 1 2.0717284859540150e+01 1.7313886192589742e+01 4.4122283488768703e+00 0 0 0
994 1 2.2060734191592346e+01 1.8661125695503660e+01 5.8019907318923902e+00 0 0 0
198 1 2.4641106662999224e+01 1.8666664628148190e+01 2.9004339678130320e+00 0 0 0
164 1 2.3252965459706190e-01 2.1499133196243783e+01 2.9574941180990484e+00 0 0 0
967 1 1.6516738899577534e+00 2.0006739625552648e+01 4.2973517850716840e+00 0 0 0
1784 1 1.3959981564125675e+01 2.1422721805130468e+01 1.1250108133559227e+01 0 0 0
172 1 5.6442989100847178e+00 2.1459965156102960e+01 2.9261940905926487e+00 0 0 0
975 1 7.0787959788790769e+00 2.0150596250748812e+01 4.2532954951962587e+00 0 0 0
180 1 1.1231582644071135e+01 2.1385408692284120e+01 3.0160445244747280e+00 0 0 0
983 1 1.2495002924382451e+01 2.0125563533207295e+01 4.3733898047405280e+00 0 0 0
984 1 1.3907880152078194e+01 2.1482108655734542e+01 5.7545288667964192e+00 0 0 0
188 1 1.6665594539582951e+01 2.1480567376464023e+01 2.9319073201437238e+00 0 0 0
991 1 1.8005322123758191e+01 2.0039462217336773e+01 4.3204706493662908e+00 0 0 0
196 1 2.2176835247945643e+01 2.1472992551909439e+01 3.0231994342675872e+00 0 0 0
999 1 2.3388720894841764e+01 2.0044023219840827e+01 4.3654721741422042e+00 0 0 0
802 1 1.6003152014033087e-01 -3.1273552021488680e+00 5.6915612247406377e+00 0 0 0
1783 1 1.2546846114343936e+01 2.0066379792734775e+01 9.9146260082091526e+00 0 0 0
811 1 4.4123923398639624e+00 -1.7345924316821693e+00 7.0582390042779943e+00 0 0 0
806 1 2.9478542695271441e+00 -3.0017356779143953e+00 8.3691118325397902e+00 0 0 0
810 1 5.6243174341938929e+00 -3.1601971325647487e+00 5.6413277960507830e+00 0 0 0
813 1 7.0904840656984023e+00 -4.3588343217078060e+00 7.0190697449773980e+00 0 0 0
814 1 8.3246961663469694e+00 -3.0780185162276967e+00 8.4453695292154514e+00 0 0 0
819 1 9.5887449549942136e+00 -1.7735340646490820e+00 7.0044011326138644e+00 0 0 0
818 1 1.1063145871027201e+01 -3.1068625846827356e+00 5.8698164301497471e+00 0 0 0
822 1 1.3821346437445099e+01 -2.9098321613787448e+00 8.2763858525477403e+00 0 0 0
826 1 1.6762823403972689e+01 -3.0987992216850264e+00 5.5736289878105882e+00 0 0 0
827 1 1.5307397040477108e+01 -1.7293225583151768e+00 6.9081728661300232e+00 0 0 0
830 1 1.9425892516452858e+01 -3.0034689823232439e+00 8.3168487376762812e+00 0 0 0
835 1 2.0728341312872892e+01 -1.5362127211059082e+00 7.0010249101122453e+00 0 0 0
803 1 -1.0824733713301278e+00 -1.6521037524579418e+00 6.9726935696896355e+00 0 0 0
838 1 2.4652445329251616e+01 -2.9805550573197692e+00 8.4701167548446552e+00 0 0 0
804 1 1.7342690666312188e-01 -2.7049424721665472e-01 8.4177135527683991e+00 0 0 0
845 1 1.5890513012235177e+00 9.7718478833432643e-01 7.0356603694155018e+00 0 0 0
812 1 5.6685729085722896e+00 -2.7052652073054845e-01 8.4087561790236318e+00 0 0 0
853 1 7.0962311748041964e+00 1.0062547074671810e+00 6.9363575210878459e+00 0 0 0
820 1 1.1010253242928858e+01 -4.1239721485494829e-01 8.4388593429124743e+00 0 0 0
861 1 1.2430526727354463e+01 8.7290877450291837e-01 7.0307996853394750e+00 0 0 0
824 1 1.3878819026319112e+01 -3.8853527242797742e-01 5.6326373337963522e+00 0 0 0
828 1 1.6454886436413730e+01 -3.5381705950898862e-01 8.4124551617741758e+00 0 0 0
869 1 1.7963445253768832e+01 1.0041551829628490e+00 7.1760825595226319e+00 0 0 0
836 1 2.2066462917119754e+01 -2.2918923108444753e-01 8.4601059588553245e+00 0 0 0
877 1 2.3370958718170616e+01 1.0717530268137352e+00 6.9590206642950925e+00 0 0 0
843 1 2.6090681753840084e+01 3.7653253687272068e+00 6.9115039088946624e+00 -1 0 0
851 1 4.2491908026550202e+00 3.8827124093060181e+00 7.0161721147973095e+00 0 0 0
846 1 2.8907837009620279e+00 2.5196930372964710e+00 8.3311224038470453e+00 0 0 0
850 1 5.6841183425010957e+00 2.4046959342742937e+00 5.6773889452917512e+00 0 0 0
854 1 8.3893743778078118e+00 2.2511408721354762e+00 8.4138578138238866e+00 0 0 0
859 1 9.8359898318705277e+00 3.7057043346347847e+00 7.0324790949322953e+00 0 0 0
862 1 1.3745768267551240e+01 2.2895793377472042e+00 8.3736983860243122e+00 0 0 0
866 1 1.6574743709543775e+01 2.2380143631620970e+00 5.7365847702841242e+00 0 0 0
867 1 1.5217574609889393e+01 3.6431143499871843e+00 7.1683631040535669e+00 0 0 0
870 1 1.9288012659697443e+01 2.3730927580322820e+00 8.4600917323377516e+00 0 0 0
875 1 2.0579030689486554e+01 3.8260094969514391e+00 6.9823921764606496e+00 0 0 0
878 1 2.4570390761693389e+01 2.5395241374825761e+00 8.3642671452675579e+00 0 0 0
844 1 1.7990257506012794e-01 5.1561141094011633e+00 8.3315268579318591e+00 0 0 0
885 1 1.5651199792793518e+00 6.6055391149070699e+00 6.9984584887374792e+00 0 0 0
852 1 5.6477786378526966e+00 5.0837178637833373e+00 8.3547322157275161e+00 0 0 0
893 1 7.1455627181724797e+00 6.4732356956687580e+00 7.1655930514363275e+00 0 0 0
856 1 8.4563236684860659e+00 5.0104264031939953e+00 5.6922311538810115e+00 0 0 0
860 1 1.1175393435099281e+01 5.0120107792811384e+00 8.5277691087600864e+00 0 0 0
901 1 1.2502337977574532e+01 6.2840291448197938e+00 7.0371585331896682e+00 0 0 0
868 1 1.6542218400333176e+01 4.9506813251148376e+00 8.4987828238554552e+00 0 0 0
872 1 1.9142167634940925e+01 5.1549270226728838e+00 5.6655406063365428e+00 0 0 0
909 1 1.7828576996285243e+01 6.3878566192205559e+00 7.1063309206120726e+00 0 0 0
876 1 2.2002028045318937e+01 5.0832105043015261e+00 8.3879791962468317e+00 0 0 0
880 1 2.4757355518425687e+01 5.1140998235032313e+00 5.5109950868914925e+00 0 0 0
917 1 2.3547820537250566e+01 6.4570801415277783e+00 7.1549084306089590e+00 0 0 0
882 1 3.1115225844801031e-01 7.9454680852124735e+00 5.5509251150116237e+00 0 0 0
883 1 -1.1028998026503452e+00 9.1639812016387054e+00 7.0862499329378368e+00 0 0 0
884 1 3.2059330742255537e-01 1.0589881296645531e+01 8.4301444571252553e+00 0 0 0
888 1 3.0286850353146910e+00 1.0666175651685714e+01 5.5652969079094072e+00 0 0 0
886 1 3.0942924937236964e+00 7.8284328986649845e+00 8.4027163433106065e+00 0 0 0
891 1 4.4808301288190497e+00 9.1538234419349642e+00 7.0410585845385807e+00 0 0 0
890 1 5.8379107587033658e+00 7.8574123345264830e+00 5.6805889283820674e+00 0 0 0
892 1 5.6652369527878133e+00 1.0524563687641521e+01 8.4950115771155552e+00 0 0 0
896 1 8.4340504461873405e+00 1.0661347261236674e+01 5.8713987741905544e+00 0 0 0
894 1 8.4961733119690432e+00 7.7488985260596595e+00 8.4139303340570546e+00 0 0 0
899 1 9.7941634543913150e+00 9.1214452010411584e+00 7.1144717776122715e+00 0 0 0
904 1 1.3740965579118313e+01 1.0781980695528024e+01 5.7105036239661917e+00 0 0 0
902 1 1.3866221583544283e+01 7.7185262836763942e+00 8.3310979358324513e+00 0 0 0
900 1 1.1163132994908182e+01 1.0532393048987018e+01 8.4226837697480548e+00 0 0 0
907 1 1.5210049822647456e+01 9.1908617455730379e+00 6.9571385497917744e+00 0 0 0
908 1 1.6512906373424560e+01 1.0569243668742855e+01 8.3309900972949702e+00 0 0 0
910 1 1.9154906231338060e+01 7.8354678454519799e+00 8.4409509755454391e+00 0 0 0
912 1 1.9232317464660024e+01 1.0415267009124666e+01 5.7407725427273260e+00 0 0 0
914 1 2.2160147940996612e+01 7.8095060872385709e+00 5.8956608068099845e+00 0 0 0
915 1 2.0594385458280875e+01 9.1642956507786533e+00 7.1003286684081015e+00 0 0 0
916 1 2.2040213037693633e+01 1.0372573778297447e+01 8.3561356669824978e+00 0 0 0
918 1 2.4773898609070240e+01 7.8117479889340657e+00 8.4597867975822076e+00 0 0 0
925 1 1.7631112717248389e+00 1.1944060793329419e+01 6.9960073579040136e+00 0 0 0
926 1 3.1262791682989199e+00 1.3239064663744086e+01 8.4232170568210130e+00 0 0 0
930 1 5.6927766532014843e+00 1.3331152133408105e+01 5.6042923723022149e+00 0 0 0
933 1 7.0132865830220119e+00 1.2055076107635681e+01 7.1003673734433903e+00 0 0 0
934 1 8.4596533398856888e+00 1.3263994762561445e+01 8.4795915425999375e+00 0 0 0
938 1 1.1105693257841644e+01 1.3379348411425681e+01 5.5809344308915332e+00 0 0 0
941 1 1.2337438575724185e+01 1.2021338031898642e+01 7.0584180941079024e+00 0 0 0
942 1 1.3714493826349482e+01 1.3423131829975709e+01 8.4094813808911617e+00 0 0 0
946 1 1.6680275960682003e+01 1.3312617875308330e+01 5.7765740988886263e+00 0 0 0
949 1 1.7985385840438017e+01 1.1847352301280404e+01 7.1048808737333511e+00 0 0 0
950 1 1.9397164541576242e+01 1.3099298346550402e+01 8.4761784923757570e+00 0 0 0
954 1 2.1879050931315067e+01 1.3045330541640540e+01 5.6810701218726569e+00 0 0 0
957 1 2.3303391049066001e+01 1.1787752143227863e+01 6.9703341253645617e+00 0 0 0
958 1 2.4718530974314994e+01 1.3223777751424656e+01 8.4256820060206614e+00 0 0 0
924 1 3.4188265831920334e-01 1.5879138496569078e+01 8.3652083668120980e+00 0 0 0
928 1 2.9662754893851666e+00 1.6029334520082390e+01 5.6275298921710775e+00 0 0 0
931 1 4.3570680378613851e+00 1.4627766413959568e+01 7.0044182070868439e+00 0 0 0
932 1 5.8617548177560934e+00 1.5940576271462035e+01 8.3477609124293437e+00 0 0 0
936 1 8.4718432948290072e+00 1.6045042558435227e+01 5.6017657498183810e+00 0 0 0
939 1 9.7025263402316266e+00 1.4686177394927023e+01 7.0630203134958860e+00 0 0 0
944 1 1.3936012795612719e+01 1.6175687443149471e+01 5.6490515527256697e+00 0 0 0
940 1 1.1148701228278814e+01 1.6006705323374248e+01 8.3673451970737354e+00 0 0 0
947 1 1.5107744292615527e+01 1.4590187269817518e+01 7.0834806179463747e+00 0 0 0
948 1 1.6505040149646980e+01 1.6039183309025788e+01 8.4075459124113898e+00 0 0 0
952 1 1.9350666444960520e+01 1.5856579963664183e+01 5.7116859254364352e+00 0 0 0
955 1 2.0589172230095205e+01 1.4478812825239197e+01 7.0479669213860996e+00 0 0 0
956 1 2.1842771290155440e+01 1.5918364469681272e+01 8.4896976864043889e+00 0 0 0
923 1 2.6054921878223460e+01 1.4569013045860837e+01 7.1229021633746736e+00 -1 0 0
962 1 1.9102259576618777e-01 1.8576799410570423e+01 5.6292444152742247e+00 0 0 0
965 1 1.5777129803450316e+00 1.7322458092909820e+01 6.9504615604685158e+00 0 0 0
966 1 3.0255894520616984e+00 1.8662586002836925e+01 8.2476897998146619e+00 0 0 0
970 1 5.7470234344718678e+00 1.8861241974554041e+01 5.7481091018127044e+00 0 0 0
973 1 7.1318352780208292e+00 1.7464570285494041e+01 7.1246450739632730e+00 0 0 0
974 1 8.5434856315412961e+00 1.8783910413997699e+01 8.5020994595241142e+00 0 0 0
978 1 1.1084429816488424e+01 1.8803810186142332e+01 5.7478259637547007e+00 0 0 0
981 1 1.2396300453898677e+01 1.7437122338620892e+01 7.0650902271861842e+00 0 0 0
986 1 1.6626359692503975e+01 1.8709856194697451e+01 5.6490634510973585e+00 0 0 0
982 1 1.3836548864931531e+01 1.8765129185235768e+01 8.4115832322847357e+00 0 0 0
989 1 1.7920574513101904e+01 1.7306466756490387e+01 7.0203062976407455e+00 0 0 0
990 1 1.9315492721335971e+01 1.8625026007984822e+01 8.4000390311784425e+00 0 0 0
997 1 2.3337977000259365e+01 1.7257110094415754e+01 7.1729412382190230e+00 0 0 0
998 1 2.4668001807526153e+01 1.8617049782711376e+01 8.4098749787675846e+00 0 0 0
964 1 2.0466646237500119e-01 2.1285219774429766e+01 8.4288310667714406e+00 0 0 0
1005 1 1.6042974882651893e+00 2.2727089315898986e+01 7.0314946109998679e+00 0 0 0
968 1 2.8650707982253549e+00 2.1433152932597764e+01 5.6337389308950163e+00 0 0 0
971 1 4.2998644694067547e+00 2.0250602510871857e+01 7.1149893748706114e+00 0 0 0
972 1 5.6437036223363464e+00 2.1600186499502701e+01 8.4099989771543715e+00 0 0 0
976 1 8.4634380105735882e+00 2.1365712703390944e+01 5.6627532993037910e+00 0 0 0