
units 		metal
dimension	3
boundary	p	p	p
atom_style	atomic

##load structure
read_data lammps_data.0K.minimized
  orthogonal box = (-1.07737 -2.15475 -1.07737) to (26.0774 52.1547 26.0774)
  2 by 2 by 2 MPI processor grid
  reading atoms ...
  2000 atoms
  reading velocities ...
  2000 velocities

##scale block and randomize velocities
print ${ave_SF}
print 1.00194017060324
1.00194017060324

change_box all x scale ${ave_SF} y scale ${ave_SF} z scale ${ave_SF} remap
change_box all x scale 1.00194017060324 y scale ${ave_SF} z scale ${ave_SF} remap
change_box all x scale 1.00194017060324 y scale 1.00194017060324 z scale ${ave_SF} remap
change_box all x scale 1.00194017060324 y scale 1.00194017060324 z scale 1.00194017060324 remap
  orthogonal box = (-1.10372 -2.15475 -1.07737) to (26.1037 52.1547 26.0774)
  orthogonal box = (-1.10372 -2.20743 -1.07737) to (26.1037 52.2074 26.0774)
  orthogonal box = (-1.10372 -2.20743 -1.10372) to (26.1037 52.2074 26.1037)
velocity all create ${T} 4928459 rot yes mom yes dist gaussian
velocity all create 500 4928459 rot yes mom yes dist gaussian

#load potential
pair_style sw
pair_coeff * * pot/Si.sw Si
Reading potential file pot/Si.sw with DATE: 2007-06-11
mass * 28.0855

thermo ${thermo_save}
thermo 100
thermo_style custom time temp press
fix 1 all nvt temp ${T} ${T} 0.1
fix 1 all nvt temp 500 ${T} 0.1
fix 1 all nvt temp 500 500 0.1

##EQ RUN
run ${N_EQ}
run 2500
Neighbor list info ...
  1 neighbor list requests
  update every 1 steps, delay 10 steps, check yes
  max neighbors/atom: 2000, page size: 100000
  master list distance cutoff = 5.77118
  ghost atom cutoff = 5.77118
  binsize = 2.88559 -> bins = 10 19 10
Memory usage per processor = 2.51802 Mbytes
Time Temp Press 
           0          500   -2421.7682 
         0.1    273.73329    -2379.645 
         0.2    250.36621   -1979.1934 
         0.3    336.30223     -1710.49 
         0.4    412.62884   -1034.8988 
         0.5    445.46979   -514.61954 
         0.6    496.63343   -241.82321 
         0.7    529.26664    72.839488 
         0.8    527.13764    429.40708 
         0.9    521.97396    628.69994 
           1    497.80063   -132.49699 
         1.1    497.57459   -388.49076 
         1.2    495.60438    21.093715 
         1.3     497.8282    216.68247 
         1.4    498.51312    7.1873502 
         1.5    528.52787   -15.416286 
         1.6    508.48029    32.321871 
         1.7    482.35968   -150.79126 
         1.8    474.07164   -190.05819 
         1.9    487.35604   -261.65747 
           2    503.85248   -120.17946 
         2.1    492.95005    90.063796 
         2.2    490.84041   -176.46842 
         2.3    519.57305   -42.485588 
         2.4    483.75601   -137.11223 
         2.5     469.7463   -164.54592 
Loop time of 6.7999 on 8 procs for 2500 steps with 2000 atoms

Performance: 31.765 ns/day, 0.756 hours/ns, 367.653 timesteps/s
96.9% CPU use with 8 MPI tasks x no OpenMP threads

MPI task timing breakdown:
Section |  min time  |  avg time  |  max time  |%varavg| %total
---------------------------------------------------------------
Pair    | 3.6329     | 4.4239     | 5.8601     |  33.0 | 65.06
Neigh   | 0          | 0          | 0          |   0.0 |  0.00
Comm    | 0.65961    | 2.1258     | 2.9486     |  49.3 | 31.26
Output  | 0.00059485 | 0.00098008 | 0.0034168  |   2.9 |  0.01
Modify  | 0.082573   | 0.18143    | 0.2238     |  11.7 |  2.67
Other   |            | 0.06779    |            |       |  1.00

Nlocal:    250 ave 323 max 197 min
Histogram: 1 1 2 0 2 0 0 1 0 1
Nghost:    1067 ave 1120 max 994 min
Histogram: 1 0 1 0 0 2 0 2 1 1
Neighs:    0 ave 0 max 0 min
Histogram: 8 0 0 0 0 0 0 0 0 0
FullNghs:  8500 ave 10982 max 6698 min
Histogram: 1 1 2 0 2 0 0 1 0 1

Total # of neighbors = 68000
Ave neighs/atom = 34
Neighbor list builds = 0
Dangerous builds = 0
#log output-2/log.TC.${T}  #save TD output to this file

##PROD RUN (just to check the average pressure)
reset_timestep 0

variable Pxx equal pxx*0.0001 #GPa
variable Pyy equal pyy*0.0001 #GPa
variable Pzz equal pzz*0.0001 #GPa
variable Pxy equal pxy*0.0001 #GPa
variable Pxz equal pxz*0.0001 #GPa
variable Pyz equal pyz*0.0001 #GPa

##Nevery=2, Nrepeat=6, and Nfreq=100, then values on timesteps 90,92,94,96,98,100
fix ave_press all ave/time 1 ${N_PROD_NVT} ${N_PROD_NVT} v_Pxx v_Pyy v_Pzz v_Pxy v_Pxz v_Pyz  file  ${LOC1}/NVT-ave-pressure.dat
fix ave_press all ave/time 1 2500 ${N_PROD_NVT} v_Pxx v_Pyy v_Pzz v_Pxy v_Pxz v_Pyz  file  ${LOC1}/NVT-ave-pressure.dat
fix ave_press all ave/time 1 2500 2500 v_Pxx v_Pyy v_Pzz v_Pxy v_Pxz v_Pyz  file  ${LOC1}/NVT-ave-pressure.dat
fix ave_press all ave/time 1 2500 2500 v_Pxx v_Pyy v_Pzz v_Pxy v_Pxz v_Pyz  file  ../output/output-1//NVT-ave-pressure.dat

run ${N_PROD_NVT}
run 2500
Memory usage per processor = 2.51802 Mbytes
Time Temp Press 
         2.5     469.7463   -164.54592 
         2.6    482.68613   -325.51798 
         2.7    499.30975   -390.01879 
         2.8    492.10971    1.7503083 
         2.9     487.2382   -228.00858 
           3    456.93293   -443.16255 
         3.1    463.45119   -386.44668 
         3.2    496.63291    98.003754 
         3.3    516.24673    86.836969 
         3.4    512.42433    60.628372 
         3.5    492.44435     119.9618 
         3.6    489.39428   -243.31816 
         3.7    487.35656   -183.73754 
         3.8    482.59796   -133.82346 
         3.9    503.42337   0.62655475 
           4    520.33154    234.35015 
         4.1    492.14192    43.667713 
         4.2     497.6641   -104.06267 
         4.3    499.86751    14.271685 
         4.4    510.11928   -90.491488 
         4.5    494.12368   -268.00172 
         4.6    501.92545    168.79978 
         4.7    512.17798    246.37863 
         4.8     518.6194    125.62063 
         4.9    495.39116   -188.84187 
           5    468.84041   -293.15965 
Loop time of 6.12664 on 8 procs for 2500 steps with 2000 atoms

Performance: 35.256 ns/day, 0.681 hours/ns, 408.054 timesteps/s
96.9% CPU use with 8 MPI tasks x no OpenMP threads

MPI task timing breakdown:
Section |  min time  |  avg time  |  max time  |%varavg| %total
---------------------------------------------------------------
Pair    | 4.3621     | 4.6068     | 4.8511     |   6.5 | 75.19
Neigh   | 0          | 0          | 0          |   0.0 |  0.00
Comm    | 0.9786     | 1.1933     | 1.4392     |  11.9 | 19.48
Output  | 0.00063491 | 0.0010424  | 0.0035167  |   2.9 |  0.02
Modify  | 0.25773    | 0.28655    | 0.3079     |   3.4 |  4.68
Other   |            | 0.039      |            |       |  0.64

Nlocal:    250 ave 257 max 242 min
Histogram: 1 0 2 0 0 0 2 0 2 1
Nghost:    1066.5 ave 1074 max 1059 min
Histogram: 1 0 2 1 1 0 0 0 2 1
Neighs:    0 ave 0 max 0 min
Histogram: 8 0 0 0 0 0 0 0 0 0
FullNghs:  8694.75 ave 8941 max 8374 min
Histogram: 1 0 2 0 0 0 1 2 0 2

Total # of neighbors = 69558
Ave neighs/atom = 34.779
Neighbor list builds = 0
Dangerous builds = 0

write_data ${LOC1}/NVT-EQ-STRUCTURE.lammps #data file
write_data ../output/output-1//NVT-EQ-STRUCTURE.lammps 

clear

#####--------------------------------------------------------------------
#####SIMULATION-4: Greene Kubo
#####--------------------------------------------------------------------


variable thermo_save equal 1
variable snap_save equal ${N_GK}
variable snap_save equal 1000000

#variable data_save equal ${N_steps}

units 		metal
dimension	3
boundary	p	p	p
atom_style	atomic

##READ ATOMS
read_data ${LOC1}/NVT-EQ-STRUCTURE.lammps
read_data ../output/output-1//NVT-EQ-STRUCTURE.lammps
  orthogonal box = (-1.10372 -2.20743 -1.10372) to (26.1037 52.2074 26.1037)
  2 by 2 by 2 MPI processor grid
  reading atoms ...
  2000 atoms
  reading velocities ...
  2000 velocities
velocity all create ${T} 4928459 rot yes mom yes dist gaussian
velocity all create 500 4928459 rot yes mom yes dist gaussian

##dump dump1 all custom ${snap_save} snap/snap.*.lammps id type x y z

#load potential
pair_style sw
pair_coeff * * pot/Si.sw Si
Reading potential file pot/Si.sw with DATE: 2007-06-11
mass * 28.0855

compute      myKE all ke/atom
compute      myPE all pe/atom
compute      myStress all stress/atom NULL virial
compute      flux all heat/flux myKE myPE myStress
variable     Jx equal c_flux[1]/vol
variable     Jy equal c_flux[2]/vol
variable     Jz equal c_flux[3]/vol
variable     J equal (c_flux[1]+c_flux[2]+c_flux[3])/(3*vol)
variable     p_gPa equal 0.0001*press

variable Pxx equal pxx*0.0001 #GPa
variable Pyy equal pyy*0.0001 #GPa
variable Pzz equal pzz*0.0001 #GPa
variable Pxy equal pxy*0.0001 #GPa
variable Pxz equal pxz*0.0001 #GPa
variable Pyz equal pyz*0.0001 #GPa

##Nevery=2, Nrepeat=6, and Nfreq=100, then values on timesteps 90,92,94,96,98,100
fix ave_press all ave/time 1 ${N_GK} ${N_GK} v_Pxx v_Pyy v_Pzz v_Pxy v_Pxz v_Pyz  file  ${LOC2}/NVT-ave-pressure-GK.dat
fix ave_press all ave/time 1 1000000 ${N_GK} v_Pxx v_Pyy v_Pzz v_Pxy v_Pxz v_Pyz  file  ${LOC2}/NVT-ave-pressure-GK.dat
fix ave_press all ave/time 1 1000000 1000000 v_Pxx v_Pyy v_Pzz v_Pxy v_Pxz v_Pyz  file  ${LOC2}/NVT-ave-pressure-GK.dat
fix ave_press all ave/time 1 1000000 1000000 v_Pxx v_Pyy v_Pzz v_Pxy v_Pxz v_Pyz  file  ../output/output-2//NVT-ave-pressure-GK.dat

variable V equal vol
print ${V} file ${LOC2}/volume.dat
print 40280.3036777948 file ${LOC2}/volume.dat
print 40280.3036777948 file ../output/output-2//volume.dat
40280.3036777948
log ${LOC2}/NVE.log
log ../output/output-2//NVE.log
